# LAMMPS data file written by Ovito 3.10.6

720 atoms
2 atom types

-30.0 52.0 xlo xhi
-30.0 30.0 ylo yhi
-30.0 30.0 zlo zhi

Masses

1 55.845  # Fe3+
2 15.9994  # O2-

Atoms  # charge

1 1 0.0 -4.7904454901 -6.6488305746 -0.2431316815
2 1 0.0 -4.9929268895 -6.3934492283 -3.6252762266
3 1 0.0 -1.5293214176 -7.3933060041 -1.8934734907
4 2 0.0 -4.6439663135 -5.5634485666 -1.8767203567
5 2 0.0 -5.8545792201 -4.5294975352 -4.1602723805
6 2 0.0 -3.1512574251 -7.8394165694 -0.8744391292
7 2 0.0 -4.3175610394 -7.6831614882 1.5483820126
8 2 0.0 -3.1512574123 -5.506809317 0.4722922704
9 1 0.0 -2.2896051199 -7.3707610051 1.0072885036
10 1 0.0 0.9715189526 -8.1152364346 -0.6430533056
11 1 0.0 1.174000352 -8.3706177809 2.7390912396
12 2 0.0 -0.6676691252 -9.2572576921 -1.3584772575
13 2 0.0 0.4986345019 -7.080905521 -2.4345669997
14 2 0.0 -0.6676691124 -6.9246504397 -0.0117458579
15 2 0.0 3.201956297 -8.0582172757 2.1979976923
16 2 0.0 0.8250397887 -9.2006184698 0.9905353285
17 2 0.0 2.0356526699 -7.9019622437 4.6208188312
18 1 0.0 -6.0634210026 -3.9323331693 3.8711898517
19 1 0.0 -6.265902402 -3.676951823 0.4890453066
20 1 0.0 -5.5507292734 -6.6262855463 2.6576301738
21 1 0.0 -2.8022969301 -4.6768085988 2.2208480425
22 1 0.0 -8.7667427722 -2.9550213926 -0.7613748785
23 2 0.0 -5.916941826 -2.8469511613 2.2376011765
24 2 0.0 -6.0236136987 -5.5919546107 0.8661164415
25 2 0.0 -7.1275547199 -4.1456073602 -1.3926822851
26 2 0.0 -8.293858347 -3.9893523282 1.0301388538
27 2 0.0 -7.1275547326 -1.8130001299 -0.0459508473
28 2 0.0 -4.4242329376 -5.1229191641 3.239882404
29 2 0.0 -5.5905365519 -4.9666640829 5.6627035458
30 2 0.0 -4.4242329248 -2.7903119118 4.5866138036
31 1 0.0 -2.0871238016 -7.6261423221 4.3894329098
32 1 0.0 -3.5625806324 -4.6542635998 5.1216100368
33 1 0.0 -0.3014565599 -5.3987390293 3.4712682276
34 1 0.0 -0.0989751605 -5.6541203756 6.8534127728
35 1 0.0 3.162148912 -6.3985958051 5.2030709636
36 2 0.0 4.8013369515 -5.2565745424 5.9184949948
37 2 0.0 -1.9406446377 -6.5407602868 2.7558442757
38 2 0.0 -0.7743410106 -4.3644081157 1.6797545335
39 2 0.0 -1.9406446249 -4.2081530345 4.1025756753
40 2 0.0 1.9289807845 -5.3417198704 6.3123192255
41 2 0.0 0.9317116487 -6.4556149932 2.3620201046
42 2 0.0 -0.4479357238 -6.4841210645 5.1048568617
43 1 0.0 -7.5388779145 -0.9604544177 4.6033668397
44 1 0.0 -4.0752724426 -1.9603111935 6.3351695757
45 2 0.0 -7.2965892112 -2.8754572054 4.9804379747
46 2 0.0 -8.4005302324 -1.4291099549 2.7216392481
47 2 0.0 -8.4005302451 0.9034972754 4.0683706859
48 1 0.0 -1.5744320724 -2.682241624 7.5855897608
49 2 0.0 -3.2136201502 -3.8242628816 6.8701658089
50 2 0.0 -2.0473165231 -1.6479107104 5.7940760667
51 2 0.0 -3.2136201374 -1.4916556292 8.2168972085
52 2 0.0 -0.3412638638 -3.7391175879 6.4763416378
53 1 0.0 -5.708099937 -3.4441155344 -5.7938609549
54 1 0.0 -2.2444944651 -4.4439723102 -4.062058219
55 1 0.0 -2.4469758645 -4.1885909639 -7.4442027641
56 1 0.0 -1.7318027359 -7.1379246871 -5.2756178969
57 1 0.0 1.0166296074 -5.1884477396 -5.7124000282
58 2 0.0 -2.0980152885 -3.3585903021 -5.6956468942
59 2 0.0 -4.4749318095 -4.500991469 -6.9031092169
60 2 0.0 -3.3086281951 -2.3246392707 -7.979198918
61 2 0.0 -3.370990801 -5.9473386923 -4.6443104491
62 2 0.0 -0.6053064001 -5.634558305 -4.6933656667
63 2 0.0 -1.7716100144 -5.4783032237 -2.2705445249
64 2 0.0 -0.6053063873 -3.3019510526 -3.3466342671
65 2 0.0 -7.3472879893 -2.2535295667 -5.1625535484
66 1 0.0 6.2207917472 -6.8876899469 0.1705848872
67 1 0.0 1.7318027359 -8.1377814629 -3.5438151609
68 1 0.0 0.2563459051 -5.1659027406 -2.8116380339
69 1 0.0 3.5174699776 -5.9103781701 -4.4619798431
70 1 0.0 3.719951377 -6.1657595164 -1.0798352979
71 2 0.0 1.8782818998 -7.0523994277 -5.177403795
72 2 0.0 3.0445855269 -4.8760472565 -6.2534935372
73 2 0.0 1.8782819126 -4.7197921753 -3.8306723954
74 2 0.0 4.5816037076 -8.0297112096 -0.5448391441
75 2 0.0 5.747907322 -5.8533590113 -1.6209288452
76 2 0.0 2.0980152885 -6.6118700524 -0.0608010754
77 2 0.0 3.3709908137 -6.9957602053 -2.828391209
78 2 0.0 4.5816036949 -5.6971039792 0.8018922937
79 1 0.0 -6.9810754495 -0.7276181291 -1.6795394217
80 1 0.0 -5.5056186186 -3.6994968514 -2.4117165488
81 1 0.0 -3.5174699776 -1.7274749049 0.0522633142
82 1 0.0 -3.719951377 -1.4720935586 -3.3298812309
83 1 0.0 -3.0047782484 -4.4214272818 -1.1612963637
84 1 0.0 -0.2563459051 -2.4719503344 -1.598078495
85 1 0.0 -9.4819158197 -0.0056876986 -2.9299596068
86 1 0.0 -6.2207917472 -0.7501631281 -4.580301416
87 2 0.0 -3.370990801 -0.6420928968 -1.581325361
88 2 0.0 -3.4776626737 -3.3870963462 -2.952810096
89 2 0.0 -4.5816036949 -1.9407490958 -5.2116088226
90 2 0.0 -5.747907322 -1.7844940637 -2.7887876837
91 2 0.0 -4.5816037076 0.3918581346 -3.8648773848
92 2 0.0 -4.6439663135 -3.230841287 -0.5299889159
93 2 0.0 -1.8782819126 -2.9180608997 -0.5790441335
94 2 0.0 -3.0445855269 -2.7618058185 1.8437770083
95 2 0.0 -1.8782818998 -0.5854536473 0.7676872661
96 2 0.0 -8.620263489 -1.8696393918 -2.394963453
97 2 0.0 -7.4539598747 0.3067128065 -3.4710531541
98 2 0.0 -8.6202635018 0.4629678386 -1.0482320152
99 1 0.0 4.9478162347 -4.1711925416 4.2849064204
100 1 0.0 8.2089403072 -4.9156679711 2.6345646112
101 1 0.0 0.4588272234 -5.4212840576 0.5705063723
102 1 0.0 -1.0166296074 -2.4494053354 1.3026834993
103 1 0.0 2.2444944651 -3.1938807648 -0.3476583099
104 1 0.0 2.4469758645 -3.4492621111 3.0344862353
105 1 0.0 5.708099937 -4.1937375406 1.3841444261
106 1 0.0 2.9596675936 -6.1432144881 1.8209265574
107 2 0.0 7.3472879893 -5.3843235083 0.7528370195
108 2 0.0 6.1809843622 -5.2280684762 3.1756581584
109 2 0.0 7.3472879765 -3.0517162779 2.0995684573
110 2 0.0 0.6053063873 -4.3359020224 -1.0630822618
111 2 0.0 1.7716100144 -2.1595498513 -2.139172004
112 2 0.0 0.6053064001 -2.00329477 0.2836491378
113 2 0.0 3.3086281951 -5.3132138043 3.5694823891
114 2 0.0 4.4749318095 -3.136861606 2.493392688
115 2 0.0 0.825039776 -3.8953726472 4.0535204578
116 2 0.0 3.4776626737 -4.2507567288 -1.4569064329
117 2 0.0 2.0980153012 -4.2792628 1.2859303242
118 2 0.0 3.3086281824 -2.9806065739 4.9162138269
119 1 0.0 -8.254050962 1.9888792762 2.4347821114
120 1 0.0 -6.7785941311 -0.9829994461 1.7026049844
121 1 0.0 -4.7904454901 0.9890225004 4.1665848474
122 1 0.0 -4.9929268895 1.2444038467 0.7844403022
123 1 0.0 -4.2777537609 -1.7049298765 2.9530251695
124 1 0.0 -1.5293214176 0.2445470709 2.5162430382
125 1 0.0 -7.4937672597 1.9663342772 -0.4659798829
126 2 0.0 -4.6439663135 2.0744045084 2.5329961722
127 2 0.0 -4.7506381862 -0.6705989409 1.1615114372
128 2 0.0 -5.8545792074 0.7757483095 -1.0972872894
129 2 0.0 -7.0208828345 0.9320033415 1.3255338495
130 2 0.0 -5.8545792201 3.1083555398 0.2494441484
131 2 0.0 -5.916941826 -0.5143438817 3.5843326172
132 2 0.0 -3.1512574251 -0.2015634944 3.5352773997
133 2 0.0 -4.3175610394 -0.0453084132 5.9580985415
134 2 0.0 -3.1512574123 2.131043758 4.8820087993
135 2 0.0 -8.7269353872 3.0232102118 0.6432683791
136 1 0.0 3.6748407222 -1.4546951363 8.3992279535
137 1 0.0 6.9359647947 -2.1991705658 6.7488861443
138 1 0.0 -0.8141482891 -2.7047866523 4.6848279055
139 1 0.0 -2.2896051199 0.2670920699 5.4170050325
140 1 0.0 0.9715189526 -0.4773833596 3.7666632233
141 1 0.0 1.174000352 -0.7327647059 7.1488077684
142 1 0.0 4.4351244245 -1.4772401353 5.4984659592
143 1 0.0 1.6866920811 -3.4267170828 5.9352480906
144 2 0.0 6.0743124768 -2.667826103 4.8671585527
145 2 0.0 4.9080088497 -2.511571071 7.2899796916
146 2 0.0 6.074312464 -0.3352188727 6.2138899905
147 2 0.0 -0.6676691252 -1.6194046171 3.0512392714
148 2 0.0 0.4986345019 0.556947554 1.9751495292
149 2 0.0 -0.6676691124 0.7132026353 4.397970671
150 2 0.0 2.0356526826 -2.596716399 7.6838039223
151 2 0.0 3.201956297 -0.4203642007 6.6077142212
152 2 0.0 -0.4479357365 -1.1788752419 8.1678419909
153 2 0.0 2.2046871612 -1.5342593235 2.6574151003
154 2 0.0 0.8250397887 -1.5627653948 5.4002518574
155 2 0.0 2.0356526699 -0.2641091687 9.0305353601
156 1 0.0 -6.265902402 3.960901252 4.8987618354
157 1 0.0 -5.5507292734 1.0115675287 7.0673467027
158 1 0.0 -2.8022969301 2.9610444762 6.6305645714
159 2 0.0 -6.0236136987 2.0458984643 5.2758329704
160 2 0.0 -7.1275547199 3.4922457148 3.0170342438
161 2 0.0 -4.4242329376 2.5149339109 7.6495989329
162 1 0.0 -2.0871238016 0.0117107529 8.7991494387
163 1 0.0 -0.3014565599 2.2391140457 7.8809847565
164 2 0.0 -1.9406446377 1.0970927882 7.1655608046
165 2 0.0 -0.7743410106 3.2734449593 6.0894710624
166 2 0.0 -1.9406446249 3.4297000405 8.5122922042
167 2 0.0 0.9317116487 1.1822380818 6.7717366335
168 2 0.0 -0.4479357238 1.1537320105 9.5145733906
169 1 0.0 0.3014565599 -2.2391140457 -7.8809847565
170 2 0.0 -0.825039776 -3.7424804278 -8.4632369866
171 2 0.0 1.9406446249 -3.4297000405 -8.5122922042
172 2 0.0 0.7743410106 -3.2734449593 -6.0894710624
173 2 0.0 1.9406446377 -1.0970927882 -7.1655608046
174 1 0.0 2.8022969301 -2.9610444762 -6.6305645714
175 1 0.0 6.265902402 -3.960901252 -4.8987618354
176 2 0.0 4.4242329376 -2.5149339109 -7.6495989329
177 2 0.0 4.6439663135 -4.407011788 -3.8797276129
178 2 0.0 7.1275547199 -3.4922457148 -3.0170342438
179 1 0.0 -4.4351244245 1.4772401353 -5.4984659592
180 1 0.0 -2.9596675936 -1.4946385869 -6.2306430863
181 1 0.0 -0.9715189526 0.4773833596 -3.7666632233
182 1 0.0 -1.174000352 0.7327647059 -7.1488077684
183 1 0.0 -0.4588272234 -2.2165690174 -4.9802229012
184 1 0.0 2.2896051199 -0.2670920699 -5.4170050325
185 1 0.0 -6.9359647947 2.1991705658 -6.7488861443
186 1 0.0 -3.6748407222 1.4546951363 -8.3992279535
187 2 0.0 -0.825039776 1.5627653676 -5.4002518985
188 2 0.0 -0.9317116487 -1.1822380818 -6.7717366335
189 2 0.0 -2.0356526699 0.2641091687 -9.0305353601
190 2 0.0 -3.201956297 0.4203642007 -6.6077142212
191 2 0.0 -2.0356526826 2.596716399 -7.6838039223
192 2 0.0 -2.0980152885 -1.0259830226 -4.3489154534
193 2 0.0 0.6676691124 -0.7132026353 -4.397970671
194 2 0.0 -0.4986345019 -0.556947554 -1.9751495292
195 2 0.0 0.6676691252 1.6194046171 -3.0512392714
196 2 0.0 -6.074312464 0.3352188727 -6.2138899905
197 2 0.0 -4.9080088497 2.511571071 -7.2899796916
198 2 0.0 -6.0743124768 2.667826103 -4.8671585527
199 1 0.0 7.4937672597 -1.9663342772 0.4659798829
200 1 0.0 3.0047782484 -3.2164257932 -3.2484201652
201 1 0.0 1.5293214176 -0.2445470709 -2.5162430382
202 1 0.0 4.7904454901 -0.9890225004 -4.1665848474
203 1 0.0 4.9929268895 -1.2444038467 -0.7844403022
204 1 0.0 8.254050962 -1.9888792762 -2.4347821114
205 1 0.0 5.5056186186 -3.9383562236 -1.9979999801
206 2 0.0 8.7269353872 -3.0232102118 -0.6432683791
207 2 0.0 3.1512574123 -2.131043758 -4.8820087993
208 2 0.0 4.3175610394 0.0453084132 -5.9580985415
209 2 0.0 3.1512574251 0.2015634944 -3.5352773997
210 2 0.0 5.8545792201 -3.1083555398 -0.2494441484
211 2 0.0 7.0208828345 -0.9320033415 -1.3255338495
212 2 0.0 3.370990801 -1.6905143827 0.2345939203
213 2 0.0 6.0236136987 -2.0458984643 -5.2758329704
214 2 0.0 4.6439663262 -2.0744045356 -2.5329962133
215 2 0.0 5.8545792074 -0.7757483095 1.0972872894
216 1 0.0 -5.708099937 4.1937375406 -1.3841444261
217 1 0.0 -4.2326431061 1.2218588184 -2.1163215531
218 1 0.0 -2.2444944651 3.1938807648 0.3476583099
219 1 0.0 -2.4469758645 3.4492621111 -3.0344862353
220 1 0.0 -1.7318027359 0.4999283879 -0.865901368
221 1 0.0 1.0166296074 2.4494053354 -1.3026834993
222 1 0.0 -8.2089403072 4.9156679711 -2.6345646112
223 1 0.0 -4.9478162347 4.1711925416 -4.2849064204
224 1 0.0 -7.696248578 2.2217155941 -3.848124289
225 2 0.0 -2.0980152885 4.2792627729 -1.2859303653
226 2 0.0 -2.2046871612 1.5342593235 -2.6574151003
227 2 0.0 -3.3086281824 2.9806065739 -4.9162138269
228 2 0.0 -4.4749318095 3.136861606 -2.493392688
229 2 0.0 -3.3086281951 5.3132138043 -3.5694823891
230 2 0.0 -3.370990801 1.6905143827 -0.2345939203
231 2 0.0 -0.6053064001 2.00329477 -0.2836491378
232 2 0.0 -1.7716100144 2.1595498513 2.139172004
233 2 0.0 -0.6053063873 4.3359020224 1.0630822618
234 2 0.0 -7.3472879765 3.0517162779 -2.0995684573
235 2 0.0 -6.1809843622 5.2280684762 -3.1756581584
236 2 0.0 -7.3472879893 5.3843235083 -0.7528370195
237 1 0.0 6.2207917472 0.7501631281 4.580301416
238 1 0.0 7.696248578 -2.2217155941 3.848124289
239 1 0.0 9.4819158197 0.0056876986 2.9299596068
240 1 0.0 1.7318027359 -0.4999283879 0.865901368
241 1 0.0 0.2563459051 2.4719503344 1.598078495
242 1 0.0 3.5174699776 1.7274749049 -0.0522633142
243 1 0.0 3.719951377 1.4720935586 3.3298812309
244 1 0.0 6.9810754495 0.7276181291 1.6795394217
245 1 0.0 4.2326431061 -1.2218588184 2.1163215531
246 2 0.0 8.6202635018 -0.4629678386 1.0482320152
247 2 0.0 7.4539598747 -0.3067128065 3.4710531541
248 2 0.0 8.620263489 1.8696393918 2.394963453
249 2 0.0 1.8782818998 0.5854536473 -0.7676872661
250 2 0.0 3.0445855269 2.7618058185 -1.8437770083
251 2 0.0 1.8782819126 2.9180608997 0.5790441335
252 2 0.0 4.5816037076 -0.3918581346 3.8648773848
253 2 0.0 5.747907322 1.7844940637 2.7887876837
254 2 0.0 2.0980152885 1.0259830226 4.3489154534
255 2 0.0 4.7506381862 0.6705989409 -1.1615114372
256 2 0.0 3.3709908137 0.6420928697 1.5813253199
257 2 0.0 4.5816036949 1.9407490958 5.2116088226
258 1 0.0 -5.5056186186 3.9383562236 1.9979999801
259 1 0.0 -3.5174699776 5.9103781701 4.4619798431
260 1 0.0 -3.719951377 6.1657595164 1.0798352979
261 1 0.0 -3.0047782484 3.2164257932 3.2484201652
262 1 0.0 -0.2563459051 5.1659027406 2.8116380339
263 1 0.0 -6.2207917472 6.8876899469 -0.1705848872
264 2 0.0 -3.370990801 6.9957601782 2.8283911679
265 2 0.0 -3.4776626737 4.2507567288 1.4569064329
266 2 0.0 -4.5816036949 5.6971039792 -0.8018922937
267 2 0.0 -5.747907322 5.8533590113 1.6209288452
268 2 0.0 -4.5816037076 8.0297112096 0.5448391441
269 2 0.0 -4.6439663135 4.407011788 3.8797276129
270 2 0.0 -1.8782819126 4.7197921753 3.8306723954
271 2 0.0 -3.0445855269 4.8760472565 6.2534935372
272 2 0.0 -1.8782818998 7.0523994277 5.177403795
273 1 0.0 0.4588272234 2.2165690174 4.9802229012
274 1 0.0 -1.0166296074 5.1884477396 5.7124000282
275 1 0.0 2.2444944651 4.4439723102 4.062058219
276 1 0.0 2.4469758645 4.1885909639 7.4442027641
277 1 0.0 5.708099937 3.4441155344 5.7938609549
278 1 0.0 2.9596675936 1.4946385869 6.2306430863
279 2 0.0 7.3472879893 2.2535295667 5.1625535484
280 2 0.0 0.6053063873 3.3019510526 3.3466342671
281 2 0.0 1.7716100144 5.4783032237 2.2705445249
282 2 0.0 0.6053064001 5.634558305 4.6933656667
283 2 0.0 3.3086281951 2.3246392707 7.979198918
284 2 0.0 4.4749318095 4.500991469 6.9031092169
285 2 0.0 0.825039776 3.7424804278 8.4632369866
286 2 0.0 3.4776626737 3.3870963462 2.952810096
287 2 0.0 2.0980153012 3.358590275 5.6956468531
288 1 0.0 1.5744320724 2.682241624 -7.5855897608
289 1 0.0 2.0871238016 -0.0117107529 -8.7991494387
290 2 0.0 0.4479357365 1.1788752419 -8.1678419909
291 2 0.0 3.2136201374 1.4916556292 -8.2168972085
292 2 0.0 2.0473165231 1.6479107104 -5.7940760667
293 2 0.0 3.2136201502 3.8242628816 -6.8701658089
294 1 0.0 5.5507292734 -1.0115675287 -7.0673467027
295 1 0.0 4.0752724426 1.9603111935 -6.3351695757
296 1 0.0 7.5388779145 0.9604544177 -4.6033668397
297 2 0.0 8.4005302451 -0.9034972754 -4.0683706859
298 2 0.0 5.916941826 0.5143438817 -3.5843326172
299 2 0.0 8.4005302324 1.4291099549 -2.7216392481
300 1 0.0 -3.162148912 6.3985958051 -5.2030709636
301 1 0.0 -1.6866920811 3.4267170828 -5.9352480906
302 1 0.0 0.3014565599 5.3987390293 -3.4712682276
303 1 0.0 0.0989751605 5.6541203756 -6.8534127728
304 1 0.0 0.8141482891 2.7047866523 -4.6848279055
305 1 0.0 3.5625806324 4.6542635998 -5.1216100368
306 2 0.0 0.4479357365 6.4841210373 -5.1048569028
307 2 0.0 0.3412638638 3.7391175879 -6.4763416378
308 2 0.0 -1.9289807845 5.3417198704 -6.3123192255
309 2 0.0 -0.825039776 3.8953726472 -4.0535204578
310 2 0.0 1.9406446249 4.2081530345 -4.1025756753
311 2 0.0 0.7743410106 4.3644081157 -1.6797545335
312 2 0.0 1.9406446377 6.5407602868 -2.7558442757
313 2 0.0 -4.8013369515 5.2565745424 -5.9184949948
314 1 0.0 8.7667427722 2.9550213926 0.7613748785
315 1 0.0 4.2777537609 1.7049298765 -2.9530251695
316 1 0.0 2.8022969301 4.6768085988 -2.2208480425
317 1 0.0 6.0634210026 3.9323331693 -3.8711898517
318 1 0.0 6.265902402 3.676951823 -0.4890453066
319 1 0.0 6.7785941311 0.9829994461 -1.7026049844
320 2 0.0 4.4242329248 2.7903119118 -4.5866138036
321 2 0.0 5.5905365519 4.9666640829 -5.6627035458
322 2 0.0 4.4242329376 5.1229191641 -3.239882404
323 2 0.0 7.1275547326 1.8130001299 0.0459508473
324 2 0.0 8.293858347 3.9893523282 -1.0301388538
325 2 0.0 4.6439663135 3.230841287 0.5299889159
326 2 0.0 7.2965892112 2.8754572054 -4.9804379747
327 2 0.0 5.9169418387 2.8469511341 -2.2376012176
328 2 0.0 7.1275547199 4.1456073602 1.3926822851
329 1 0.0 -2.9596675936 6.1432144881 -1.8209265574
330 1 0.0 -0.9715189526 8.1152364346 0.6430533056
331 1 0.0 -1.174000352 8.3706177809 -2.7390912396
332 1 0.0 -0.4588272234 5.4212840576 -0.5705063723
333 1 0.0 2.2896051199 7.3707610051 -1.0072885036
334 2 0.0 -0.825039776 9.2006184426 -0.9905353696
335 2 0.0 -0.9317116487 6.4556149932 -2.3620201046
336 2 0.0 -2.0356526699 7.9019622437 -4.6208188312
337 2 0.0 -3.201956297 8.0582172757 -2.1979976923
338 2 0.0 -2.0980152885 6.6118700524 0.0608010754
339 2 0.0 0.6676691124 6.9246504397 0.0117458579
340 2 0.0 -0.4986345019 7.080905521 2.4345669997
341 2 0.0 0.6676691252 9.2572576921 1.3584772575
342 1 0.0 3.0047782484 4.4214272818 1.1612963637
343 1 0.0 1.5293214176 7.3933060041 1.8934734907
344 1 0.0 4.7904454901 6.6488305746 0.2431316815
345 1 0.0 4.9929268895 6.3934492283 3.6252762266
346 1 0.0 5.5056186186 3.6994968514 2.4117165488
347 2 0.0 3.1512574123 5.506809317 -0.4722922704
348 2 0.0 4.3175610394 7.6831614882 -1.5483820126
349 2 0.0 3.1512574251 7.8394165694 0.8744391292
350 2 0.0 5.8545792201 4.5294975352 4.1602723805
351 2 0.0 3.370990801 5.9473386923 4.6443104491
352 2 0.0 6.0236136987 5.5919546107 -0.8661164415
353 2 0.0 4.6439663262 5.5634485394 1.8767203156
354 1 0.0 -1.7318027359 8.1377814629 3.5438151609
355 1 0.0 1.7318027359 7.1379246871 5.2756178969
356 2 0.0 1.8782818998 8.2233067223 3.6420292628
357 2 0.0 3.3202920356 6.5692663802 -5.498681071
358 1 0.0 2.0871238016 7.6261423221 -4.3894329098
359 2 0.0 0.4479357365 8.8167283169 -3.7581254621
360 1 0.0 5.5507292734 6.6262855463 -2.6576301738
361 1 0.0 16.2944239728 -3.200880073 -4.9411737446
362 1 0.0 17.6474268214 -1.5556204983 -7.5883655202
363 1 0.0 19.6471403729 -4.5551908256 -5.8565627843
364 2 0.0 17.3999888089 -1.7346551679 -5.6454699416
365 2 0.0 17.5988620672 0.537323706 -7.2416559002
366 2 0.0 17.6897201237 -4.6204585789 -5.6766512318
367 2 0.0 15.6696230066 -4.957141417 -3.9271957848
368 2 0.0 17.6897201457 -3.2737271491 -3.3440439968
369 1 0.0 17.7382848337 -5.3666713644 -3.6907535595
370 1 0.0 21.0910012339 -6.720982117 -4.6061425992
371 1 0.0 19.7379983853 -8.3662416917 -1.9589508235
372 2 0.0 19.695705061 -6.6481350409 -6.203272347
373 2 0.0 21.7158022001 -4.964720773 -5.6201205589
374 2 0.0 19.695705083 -5.3014036111 -3.870665112
375 2 0.0 21.8066602565 -8.775771617 -1.7225086109
376 2 0.0 19.9854364198 -8.1872070332 -3.9018464467
377 2 0.0 19.7865631174 -9.1124544883 0.0269468042
378 1 0.0 14.0895657084 -2.0984509408 -0.4857594508
379 1 0.0 15.4425685569 -0.453191366 -3.1329512265
380 1 0.0 14.3855684309 -4.0123604974 -2.7753646367
381 1 0.0 17.4422821085 -3.4527616934 -1.4011484905
382 1 0.0 13.998707696 1.7125999254 -4.3833714116
383 2 0.0 15.1951305445 -0.6322260356 -1.1900556478
384 2 0.0 15.0103694412 -2.2560991313 -3.7893426092
385 2 0.0 15.3940038248 0.2930214305 -5.1188488542
386 2 0.0 13.3739066857 -0.0436614407 -3.3693934391
387 2 0.0 15.3940038027 1.6397528382 -2.7862416065
388 2 0.0 15.4848618592 -3.5180294467 -1.221236938
389 2 0.0 13.4647647422 -3.8547122848 0.5282185089
390 2 0.0 15.4848618813 -2.1712980169 1.111370297
391 1 0.0 16.3852819825 -7.0119308248 -1.0435619008
392 1 0.0 15.5334265693 -4.2642422322 0.7646607343
393 1 0.0 18.8861429694 -5.6185529848 -0.1507283054
394 1 0.0 17.5331401209 -7.2638125595 2.4964634702
395 1 0.0 20.885856521 -8.6181233121 1.5810744305
396 2 0.0 22.2811526277 -8.6909703993 3.1782042356
397 2 0.0 17.4908467965 -5.5457059086 -1.7478580532
398 2 0.0 19.5109439356 -3.8622916408 -1.1647062652
399 2 0.0 17.4908468186 -4.1989744789 0.5847491818
400 2 0.0 19.6018019921 -7.6733424848 2.7329056828
401 2 0.0 20.170197501 -6.5633339264 -1.3025594408
402 2 0.0 17.7805781554 -7.0847779009 0.553567847
403 1 0.0 13.2377102925 0.6492377662 1.3224630673
404 1 0.0 15.2374238441 -2.3503325612 3.0542658032
405 2 0.0 12.99027228 0.4702030966 3.2653586459
406 2 0.0 12.8055111767 -1.1536699991 0.6660716846
407 2 0.0 13.1891455604 1.3954505627 -0.6634345604
408 2 0.0 13.1891455383 2.7421819704 1.6691726873
409 1 0.0 16.681284705 -4.5161238526 4.3046859883
410 2 0.0 15.2859885321 -4.4432767764 2.7075562405
411 2 0.0 17.3060856712 -2.7598625085 3.2907080286
412 2 0.0 15.2859885541 -3.0965453467 5.0401634755
413 2 0.0 17.9653392366 -5.4609047942 3.1528548529
414 1 0.0 18.7044269501 2.0035485188 -7.945951993
415 1 0.0 20.7041405017 -0.9960218085 -6.2141492571
416 1 0.0 22.0571433503 0.6492377662 -8.8613410327
417 1 0.0 21.0001432242 -2.9099313652 -8.503754443
418 1 0.0 24.0568569018 -2.3503325612 -7.1295382968
419 2 0.0 21.8097053378 0.4702030966 -6.9184454541
420 2 0.0 19.988481479 1.0587676915 -9.0977832453
421 2 0.0 22.0085785961 2.7421819704 -8.5146314127
422 2 0.0 19.6048470734 -1.4903528593 -7.7682769558
423 2 0.0 22.0994366525 -2.4156003144 -6.9496267443
424 2 0.0 20.0793395355 -2.7522831526 -5.2001712973
425 2 0.0 22.0994366746 -1.0688688847 -4.6170195093
426 2 0.0 17.3091308213 3.4231270137 -7.2104745504
427 1 0.0 25.5915757751 -8.3271747187 -1.9815061509
428 1 0.0 22.9998567758 -5.9095016926 -6.771951707
429 1 0.0 22.1480013626 -3.1618130999 -4.963729072
430 1 0.0 25.5007177628 -4.5161238526 -5.8791181117
431 1 0.0 24.1477149142 -6.1613834273 -3.231926336
432 2 0.0 24.1054215899 -4.4432767764 -7.4762478595
433 2 0.0 26.1255187289 -2.7598625085 -6.8930960714
434 2 0.0 24.1054216119 -3.0965453467 -5.1436406245
435 2 0.0 24.1962796684 -8.2543276315 -3.578635956
436 2 0.0 26.2163767854 -6.5709133526 -2.9954841234
437 2 0.0 22.1902946622 -6.2266510662 -3.0520149005
438 2 0.0 24.3951529487 -5.9823487687 -5.1748219592
439 2 0.0 24.1962796463 -6.9075962238 -1.2460287083
440 1 0.0 16.4995686857 3.105977651 -3.4905376993
441 1 0.0 17.3514240988 0.3582890584 -5.2987603343
442 1 0.0 18.4992822372 0.1064073237 -1.7587349633
443 1 0.0 19.8522850858 1.7516668984 -4.405926739
444 1 0.0 18.7952849598 -1.807502233 -4.0483401492
445 1 0.0 21.8519986374 -1.2479034289 -2.674124003
446 1 0.0 15.0557078247 5.2717689424 -4.7409578844
447 1 0.0 18.4084242249 3.9174581898 -5.6563469241
448 2 0.0 19.6048470734 1.5726322288 -2.4630311603
449 2 0.0 19.4200859701 -0.0512408669 -5.0623181217
450 2 0.0 19.8037203537 2.4978796949 -6.3918243667
451 2 0.0 17.7836232146 2.1611968237 -4.6423689516
452 2 0.0 19.8037203316 3.8446111026 -4.059217119
453 2 0.0 17.3999888089 -0.3879237271 -3.312862662
454 2 0.0 19.8945783881 -1.3131711822 -2.4942124505
455 2 0.0 17.8744812711 -1.6498540204 -0.7447570036
456 2 0.0 19.8945784101 0.0335602475 -0.1616052155
457 2 0.0 15.1042725789 3.1788247382 -5.0876675044
458 2 0.0 17.124369696 4.8622390171 -4.5045156718
459 2 0.0 15.1042725569 4.5255561459 -2.7550602566
460 1 0.0 23.3867175107 -7.2247455865 2.4739081428
461 1 0.0 26.7394339108 -8.5790563391 1.5585191031
462 1 0.0 20.7949985113 -4.8070725603 -2.3165374133
463 1 0.0 19.9431430982 -2.0593839677 -0.5083147782
464 1 0.0 23.2958594983 -3.4136947203 -1.4237038179
465 1 0.0 21.9428566497 -5.0589542951 1.2234879577
466 1 0.0 25.2955730499 -6.4132650477 0.308098918
467 1 0.0 22.2388593723 -6.9728638517 -1.0661172282
468 2 0.0 26.6908691787 -7.8328435426 -0.4273785246
469 2 0.0 24.6707720396 -8.1695264138 1.3220768905
470 2 0.0 26.6908691566 -6.4861121349 1.9052287231
471 2 0.0 21.9005633254 -3.3408476442 -3.0208335657
472 2 0.0 23.9206604645 -1.6574333763 -2.4376817777
473 2 0.0 21.9005633475 -1.9941162145 -0.6882263307
474 2 0.0 21.9914214039 -7.1518984993 0.8767783377
475 2 0.0 24.011518521 -5.4684842204 1.4599301703
476 2 0.0 19.9854363977 -5.124221934 1.4033993933
477 2 0.0 24.5799140299 -4.358475662 -2.5755349533
478 2 0.0 22.1902946842 -4.8799196365 -0.7194076655
479 2 0.0 21.9914213819 -5.8051670916 3.2093855854
480 1 0.0 14.2947104212 4.2084067832 0.9648765945
481 1 0.0 15.1465658344 1.4607181906 -0.8433460406
482 1 0.0 16.2944239728 1.2088364559 2.6966793304
483 1 0.0 17.6474268214 2.8540960306 0.0494875548
484 1 0.0 16.5904266953 -0.7050731008 0.4070741445
485 1 0.0 19.6471403729 -0.1454742967 1.7812902907
486 1 0.0 16.2035659604 5.019887322 -1.2009326303
487 2 0.0 17.3999888089 2.675061361 1.9923831334
488 2 0.0 17.2152277056 1.0511882653 -0.6069038279
489 2 0.0 17.5988620892 3.6003088272 -1.9364100729
490 2 0.0 15.5787649501 3.2636259559 -0.1869546578
491 2 0.0 17.5988620672 4.9470402349 0.3961971748
492 2 0.0 15.1951305445 0.7145054051 1.1425516317
493 2 0.0 17.6897201237 -0.21074205 1.9612018432
494 2 0.0 15.6696230066 -0.5474248881 3.7106572902
495 2 0.0 17.6897201457 1.1359893797 4.2938090782
496 2 0.0 14.9195114315 5.9646681493 -0.049101378
497 1 0.0 21.1818592462 -6.1223164543 6.9293224366
498 1 0.0 24.5345756464 -7.4766272069 6.0139333969
499 1 0.0 18.5901402469 -3.7046434281 2.1388768805
500 1 0.0 17.7382848337 -0.9569548355 3.9470995155
501 1 0.0 21.0910012339 -2.3112655881 3.0317104758
502 1 0.0 19.7379983853 -3.9565251628 5.6789022515
503 1 0.0 23.0907147854 -5.3108359155 4.7635132118
504 1 0.0 20.0340011078 -5.8704347195 3.3892970656
505 2 0.0 24.4860109142 -6.7304144103 4.0280357691
506 2 0.0 22.4659137751 -7.0670972816 5.7774911843
507 2 0.0 24.4860108922 -5.3836830026 6.3606430169
508 2 0.0 19.695705061 -2.238418512 1.434580728
509 2 0.0 21.7158022001 -0.5550042441 2.0177325161
510 2 0.0 19.695705083 -0.8916870822 3.767187963
511 2 0.0 19.7865631395 -6.0494693671 5.3321926315
512 2 0.0 21.8066602565 -4.3660550882 5.9153444641
513 2 0.0 17.7805781333 -4.0217928018 5.858813687
514 2 0.0 22.3750557655 -3.2560465298 1.8798793404
515 2 0.0 19.9854364198 -3.7774905043 3.7360066283
516 2 0.0 19.7865631174 -4.7027379594 7.6647998792
517 1 0.0 15.4425685569 3.9565251628 4.5049018485
518 1 0.0 14.3855684309 0.3973560315 4.8624884383
519 1 0.0 17.4422821085 0.9569548355 6.2367045845
520 2 0.0 15.0103694412 2.1536173975 3.8485104658
521 2 0.0 15.3940038248 4.7027379594 2.5190042208
522 2 0.0 15.4848618592 0.8916870822 6.416616137
523 1 0.0 16.3852819825 -2.6022142959 6.5942911742
524 1 0.0 18.8861429694 -1.2088364559 7.4871247696
525 2 0.0 17.4908467965 -1.1359893797 5.8899950218
526 2 0.0 19.5109439356 0.5474248881 6.4731468098
527 2 0.0 17.4908468186 0.21074205 8.2226022568
528 2 0.0 20.170197501 -2.1536173975 6.3352936342
529 2 0.0 17.7805781554 -2.675061372 8.191420922
530 1 0.0 25.1138570306 1.2088364559 -7.4871247696
531 2 0.0 24.0145636023 0.7145054051 -9.0412524683
532 2 0.0 26.5091531814 -0.21074205 -8.2226022568
533 2 0.0 24.4890560644 -0.5474248881 -6.4731468098
534 2 0.0 26.5091532035 1.1359893797 -5.8899950218
535 1 0.0 26.5577178915 -0.9569548355 -6.2367045845
536 1 0.0 28.5574314431 -3.9565251628 -4.5049018485
537 2 0.0 28.5151381408 -0.8916870822 -6.416616137
538 2 0.0 26.6000111911 -4.0217928018 -4.324990413
539 2 0.0 28.6059961752 -4.7027379594 -2.5190042208
540 1 0.0 20.9092852146 5.3108359155 -4.7635132118
541 1 0.0 21.7611406277 2.5631473229 -6.5717358468
542 1 0.0 22.9089987661 2.3112655881 -3.0317104758
543 1 0.0 24.2620016147 3.9565251628 -5.6789022515
544 1 0.0 23.2050014887 0.3973560315 -5.3213156617
545 1 0.0 26.2617151663 0.9569548355 -3.9470995155
546 1 0.0 19.4654243536 7.4766272069 -6.0139333969
547 1 0.0 22.8181407538 6.1223164543 -6.9293224366
548 2 0.0 24.0145636023 3.7774904932 -3.7360066728
549 2 0.0 23.829802499 2.1536173975 -6.3352936342
550 2 0.0 24.2134368826 4.7027379594 -7.6647998792
551 2 0.0 22.1933397435 4.3660550882 -5.9153444641
552 2 0.0 24.2134368605 6.0494693671 -5.3321926315
553 2 0.0 21.8097053378 1.8169345373 -4.5858381745
554 2 0.0 24.304294917 0.8916870822 -3.767187963
555 2 0.0 22.2841977999 0.5550042441 -2.0177325161
556 2 0.0 24.304294939 2.238418512 -1.434580728
557 2 0.0 19.5139891078 5.3836830026 -6.3606430169
558 2 0.0 21.5340862249 7.0670972816 -5.7774911843
559 2 0.0 19.5139890858 6.7304144103 -4.0280357691
560 1 0.0 27.7964340396 -5.019887322 1.2009326303
561 1 0.0 25.2047150402 -2.6022142959 -3.5895129258
562 1 0.0 24.3528596271 0.1454742967 -1.7812902907
563 1 0.0 27.7055760272 -1.2088364559 -2.6966793304
564 1 0.0 26.3525731786 -2.8540960306 -0.0494875548
565 1 0.0 29.7052895788 -4.2084067832 -0.9648765945
566 1 0.0 26.6485759012 -4.7680055873 -2.3390927407
567 2 0.0 29.0804885685 -5.9646681493 0.049101378
568 2 0.0 26.3102798543 -1.1359893797 -4.2938090782
569 2 0.0 28.3303769934 0.5474248881 -3.7106572902
570 2 0.0 26.3102798763 0.21074205 -1.9612018432
571 2 0.0 26.4011379328 -4.9470402349 -0.3961971748
572 2 0.0 28.4212350499 -3.2636259559 0.1869546578
573 2 0.0 24.3951529266 -2.9193636696 0.1304238808
574 2 0.0 28.9896305588 -2.1536173975 -3.8485104658
575 2 0.0 26.6000112131 -2.675061372 -1.992383178
576 2 0.0 26.4011379108 -3.6003088272 1.9364100729
577 1 0.0 18.7044269501 6.4132650477 -0.308098918
578 1 0.0 19.5562823633 3.6655764551 -2.1163215531
579 1 0.0 20.7041405017 3.4136947203 1.4237038179
580 1 0.0 22.0571433503 5.0589542951 -1.2234879577
581 1 0.0 21.0001432242 1.4997851637 -0.865901368
582 1 0.0 24.0568569018 2.0593839677 0.5083147782
583 1 0.0 17.2605660892 8.5790563391 -1.5585191031
584 1 0.0 20.6132824893 7.2247455865 -2.4739081428
585 1 0.0 17.5565688117 6.6651467824 -3.848124289
586 2 0.0 21.8097053378 4.8799196255 0.7194076209
587 2 0.0 21.6249442345 3.2560465298 -1.8798793404
588 2 0.0 22.0085786181 5.8051670916 -3.2093855854
589 2 0.0 19.988481479 5.4684842204 -1.4599301703
590 2 0.0 22.0085785961 7.1518984993 -0.8767783377
591 2 0.0 19.6048470734 2.9193636696 -0.1304238808
592 2 0.0 22.0994366525 1.9941162145 0.6882263307