# LAMMPS data file written by Ovito 3.10.6

21940 atoms
2 atom types

-30.0 140.0 xlo xhi
-30.0 30.0 ylo yhi
-30.0 30.0 zlo zhi

Masses

1 55.845  # Fe3+
2 15.9994  # O2-

Atoms  # atomic

1 2 -13.4924322951 -26.4197784785 -1.5229258258
2 2 -10.7891104873 -27.3970902604 3.1096388251
3 2 -7.1392185731 -28.9711864643 0.202779555
4 1 -13.903755477 -25.5672327663 3.1263918613
5 1 -10.4401500051 -26.5670895421 4.8581945972
6 1 -16.4045958472 -24.8453023359 1.8759716762
7 2 -13.554794901 -24.7372321046 4.8749477312
8 2 -14.7654077949 -26.0358883035 1.2446642696
9 2 -14.7654078076 -23.7032810732 2.5913957074
10 2 -12.0620859998 -24.6805928551 7.2239603583
11 2 -17.6377639747 -23.7884264013 2.9852199382
12 1 -11.2004337074 -26.5445445431 7.7589565915
13 1 -7.9393096349 -27.2890199726 6.1086147823
14 1 -4.475704163 -28.2888767484 7.8404175183
15 2 -2.8365161235 -27.1468554857 8.5558415495
16 2 -8.4121940856 -26.254689059 4.3171010882
17 2 -9.5784976999 -26.0984339778 6.7399222301
18 2 -5.7088722905 -27.2320008138 8.9496657803
19 2 -6.7061414263 -28.3458959365 4.9993666593
20 1 -14.9742495901 -23.1061167074 10.6228579396
21 1 -15.1767309895 -22.8507353611 7.2407133945
22 1 -11.7131255176 -23.8505921369 8.9725161304
23 1 -17.6775713597 -22.1288049306 5.9902932094
24 2 -14.8277704135 -22.0207346993 8.9892692644
25 2 -14.9344422862 -24.7657381487 7.6177845294
26 2 -16.0383833074 -23.3193908983 5.3589858028
27 2 -17.2046869345 -23.1631358662 7.7818069417
28 2 -16.0383833201 -20.9867836679 6.7057172406
29 2 -21.6140612823 -20.0946172413 2.4669767793
30 2 -13.3350615251 -24.2967027022 9.9915504919
31 2 -13.3350615123 -21.9640954498 11.3382818915
32 2 -18.9107394872 -21.071928996 7.0995414714
33 2 -19.908008623 -22.1858241188 3.1492423504
34 1 -3.2478393053 -26.2943097736 13.2051592366
35 1 -12.4734092199 -23.8280471378 11.8732781247
36 1 -9.2122851474 -24.5725225673 10.2229363155
37 1 -9.009803748 -24.8279039136 13.6050808607
38 1 -5.7486796755 -25.5723793431 11.9547390515
39 2 -2.8988787293 -25.4643091118 14.9537151065
40 2 -4.1094916232 -26.7629653108 11.3234316449
41 2 -4.109491636 -24.4303580804 12.6701630827
42 2 -10.8514732252 -25.7145438249 9.5075123636
43 2 -9.6851695981 -23.5381916538 8.4314226214
44 2 -10.8514732124 -23.3819365725 10.8542437633
45 2 -6.981847803 -24.5155034085 13.0639873135
46 2 -7.9791169388 -25.6293985313 9.1136881925
47 2 -9.3587643113 -25.6579046025 11.8565249496
48 2 -8.1481514301 -24.3592483764 15.4868084524
49 1 -16.449706502 -20.1342379558 11.3550349277
50 1 -12.9861010301 -21.1340947316 13.0868376636
51 1 -18.9505468722 -19.4123075253 10.1046147426
52 2 -16.100745926 -19.304237294 13.1035907976
53 2 -16.2074177987 -22.0492407434 11.7321060626
54 2 -17.3113588199 -20.602893493 9.473307336
55 2 -17.3113588326 -18.2702862626 10.8200387738
56 2 -22.8870367948 -17.378119836 6.5812983125
57 2 -14.6080370376 -21.5802052969 14.1058720251
58 2 -14.6080370248 -19.2475980445 15.4526034247
59 2 -20.1837149997 -18.3554315907 11.2138630045
60 2 -21.1809841355 -19.4693267135 7.2635638836
61 1 -4.5208148178 -23.5778123683 17.3194807698
62 1 -13.7463847324 -21.1115497326 15.9875996579
63 1 -10.4852606599 -21.856025162 14.3372578487
64 1 -7.021655188 -22.8558819378 16.0690605847
65 2 -4.1718542418 -22.7478117065 19.0680366397
66 2 -5.3824671357 -24.0464679055 15.4377531781
67 2 -5.3824671485 -21.7138606751 16.7844846159
68 2 -12.1244487377 -22.9980464196 13.6218338968
69 2 -10.9581451106 -20.8216942485 12.5457441546
70 2 -12.1244487249 -20.6654391672 14.9685652964
71 2 -8.2548233155 -21.7990060032 17.1783088466
72 2 -9.2520924513 -22.912901126 13.2280097257
73 2 -10.6317398238 -22.9414071972 15.9708464828
74 1 -17.7226820145 -17.4177405505 15.4693564609
75 1 -14.2590765426 -18.4175973263 17.2011591968
76 1 -20.2235223847 -16.69581012 14.2189362758
77 2 -17.3737214385 -16.5877398888 17.2179123308
78 2 -18.5843343324 -17.8863960877 13.5876288692
79 2 -18.5843343451 -15.5537888574 14.934360307
80 1 -11.7582361724 -19.1395277568 18.4515793819
81 1 -8.2946307005 -20.1393845325 20.1833821179
82 2 -6.6554426482 -21.3299705002 19.5520747113
83 2 -6.655442661 -18.9973632699 20.8988061491
84 2 -12.2311206231 -18.1051968432 16.6600656878
85 2 -13.3974242374 -17.9489417619 19.0828868296
86 2 -10.5250679638 -20.1964037207 17.3423312589
87 2 -13.5040961356 -15.3886994379 20.774387221
88 2 -6.9701839498 -27.9087294012 -4.8236092455
89 1 -13.345953012 -25.3343964777 -3.1565144002
90 1 -9.8823475401 -26.3342532535 -1.4247116643
91 1 -10.0848289395 -26.0788719072 -4.8068562094
92 1 -6.6212234676 -27.078728683 -3.0750534735
93 1 -15.8467933822 -24.6124660472 -4.4069345853
94 1 -12.5856693097 -25.3569414767 -6.0572763945
95 2 -9.7358683635 -25.2488712454 -3.0583003395
96 2 -10.9464812574 -26.5475274444 -6.6885838011
97 2 -12.1127848845 -26.3912724123 -4.2657626622
98 2 -10.9464812701 -24.214920214 -5.3418523633
99 2 -8.2431594751 -27.5248392483 -2.056019112
100 2 -9.4094630894 -27.3685841671 0.3668020299
101 2 -8.2431594623 -25.1922319959 -0.7092877124
102 2 -13.8188374372 -24.3000655421 -4.9480281325
103 2 -14.9851410643 -24.1438105101 -2.5252069936
104 1 -1.4170613278 -28.7779708902 2.8079314419
105 1 1.8440627447 -29.5224463197 1.1575896327
106 1 -7.3815071699 -27.056183684 -0.1742914792
107 1 -4.1203830974 -27.8006591134 -1.8246332884
108 1 -3.917901698 -28.0560404597 1.5575112568
109 1 -0.6567776255 -28.8005158892 -0.0928305524
110 2 2.1930233207 -28.6924456579 2.9061455026
111 2 -0.1838932003 -29.8348468248 1.6986831799
112 2 0.982410414 -27.6584946265 0.6225934788
113 2 -5.7595711752 -28.942680371 -2.5400572403
114 2 -4.5932675481 -26.7663281999 -3.6161469825
115 2 3.6857322219 -28.6358064084 5.2551581297
116 2 -5.7595711624 -26.6100731186 -1.1933258406
117 2 -1.889945753 -27.7436399546 1.0164177096
118 2 -5.5398377865 -28.5021509958 2.5765454793
119 2 -2.8872148888 -28.8575350774 -2.9338814113
120 2 -4.2668622613 -28.8860411486 -0.1910446543
121 2 -3.0562493801 -27.5873849226 3.4392388485
122 1 -19.8230906643 -20.9186568652 -4.9251777824
123 2 -21.445026659 -19.0321601781 -2.5594120213
124 1 -14.6189285245 -22.6178990724 0.957807133
125 1 -13.1434716936 -25.5897777947 0.225630006
126 1 -11.1553230526 -23.6177558482 2.6896098689
127 1 -11.357804452 -23.3623745019 -0.6925346762
128 1 -10.6426313234 -26.3117082252 1.4760501911
129 1 -7.8941989801 -24.3622312777 1.0392680597
130 1 -20.5833743666 -20.8961118662 -2.0244157881
131 1 -17.3222502941 -21.6405872957 -3.6747575973
132 1 -17.1197688947 -21.895968642 -0.2926130521
133 1 -13.8586448222 -22.6404440714 -1.9429548613
134 1 -16.6070771655 -24.5899210189 -1.50617273
135 2 -11.008843876 -22.5323738402 1.0560211937
136 2 -11.1155157487 -25.2773772895 -0.3154635413
137 2 -12.2194567699 -23.8310300391 -2.5742622679
138 2 -13.385760397 -23.6747750071 -0.151441129
139 2 -12.2194567826 -21.4984228088 -1.2275308301
140 2 -12.2818193885 -25.1211222303 2.1073576388
141 2 -18.9614383719 -22.7826085532 -4.3901815492
142 2 -17.7951347448 -20.6062563821 -5.4662712914
143 2 -9.5161349876 -24.808341843 2.0583024212
144 2 -10.6824386019 -24.6520867618 4.4811235631
145 2 -9.5161349748 -22.4757345906 3.4050338208
146 2 -18.9614383591 -20.4500013008 -3.0434501495
147 2 -16.258116564 -23.7599203351 0.2423831018
148 2 -15.0918129497 -21.5835681368 -0.8337065993
149 2 -18.7417049832 -22.342079178 0.7264211704
150 2 -16.0890820855 -22.6974632596 -4.7840057203
151 2 -17.468729458 -22.7259693309 -2.0411689632
152 2 -16.2581165768 -21.4273131048 1.5891145396
153 1 -2.6900368403 -26.0614734849 6.9222529751
154 1 -1.2145800095 -29.0333522072 6.1900758481
155 1 0.7735686316 -27.0613302607 8.654055711
156 1 0.5710872322 -26.8059489144 5.2719111659
157 1 4.0346927041 -27.8058056902 7.0037139018
158 1 -7.1790258516 -27.3115650009 3.207852927
159 1 -8.6544826824 -24.3396862787 3.940030054
160 1 -5.3933586099 -25.0841617082 2.2896882448
161 1 -5.1908772105 -25.3395430545 5.67183279
162 1 -1.929753138 -26.0840184839 4.0214909808
163 1 -4.6781854814 -28.0334954314 4.4582731121
164 2 0.9200478082 -25.9759482527 7.0204670358
165 2 0.8133759355 -28.720951702 5.6489823008
166 2 -0.2905650857 -27.2746044516 3.3901835742
167 2 -1.4568687128 -27.1183494196 5.8130047131
168 2 -0.2905650985 -24.9419972213 4.736915012
169 2 -0.3529277043 -28.5646966428 8.0718034809
170 2 -7.0325466877 -26.2261829657 1.5742642929
171 2 -5.8662430606 -24.0498307946 0.4981745507
172 2 2.4127566966 -28.2519162555 8.0227482633
173 2 2.4127567094 -25.9193090031 9.3694796629
174 2 -7.0325466749 -23.8935757133 2.9209956926
175 2 -4.3292248799 -27.2034947476 6.2068289439
176 2 -3.1629212655 -25.0271425493 5.1307392428
177 2 -6.812813299 -25.7856535905 6.6908670125
178 2 -4.1601904013 -26.1410376721 1.1804401218
179 2 -5.5398377738 -26.1695437434 3.9232768789
180 2 -4.3292248926 -24.8708875173 7.5535603817
181 1 3.2744090018 -27.7832606912 9.9044758961
182 2 6.0626486236 -27.4934052071 6.4626203928
183 2 4.8963450092 -27.3371501258 8.8854415347
184 1 -21.0960661768 -18.2021594599 -0.8108562492
185 2 -24.2107110727 -16.3723020224 -0.7941031152
186 2 -25.4213239793 -15.338350991 -3.077655139
187 2 -22.7180021842 -18.6482700252 0.2081781123
188 2 -22.7180021715 -16.3156627729 1.5549095119
189 1 -15.891904037 -19.9014016671 5.0721286662
190 1 -14.4164472061 -22.8732803894 4.3399515392
191 1 -12.4282985651 -20.9012584429 6.8039314021
192 1 -12.6307799645 -20.6458770966 3.421786857
193 1 -11.9156068359 -23.5952108199 5.5903717243
194 1 -9.1671744926 -21.6457338724 5.1535895929
195 1 -20.3808930482 -21.1514931832 1.3577286181
196 1 -21.8563498791 -18.1796144609 2.0899057451
197 1 -18.5952258066 -18.9240898904 0.4395639359
198 1 -18.3927444072 -19.1794712367 3.8217084811
199 1 -15.1316203347 -19.9239466662 2.1713666719
200 1 -17.880052678 -21.8734236136 2.6081488032
201 2 -12.2818193885 -19.8158764349 5.1703427269
202 2 -12.3884912612 -22.5608798843 3.7988579919
203 2 -13.4924322824 -21.1145326338 1.5400592653
204 2 -14.6587359095 -20.9582776018 3.9628804042
205 2 -13.4924322951 -18.7819254035 2.8867907031
206 2 -13.554794901 -22.4046248251 6.221679172
207 2 -20.2344138844 -20.0661111479 -0.275860016
208 2 -19.0681102573 -17.8897589768 -1.3519497582
209 2 -10.7891105001 -22.0918444377 6.1726239544
210 2 -11.9554141144 -21.9355893565 8.5954450963
211 2 -10.7891104873 -19.7592371854 7.519355354
212 2 -20.2344138716 -17.7335038956 1.0708713837
213 2 -17.5310920765 -21.0434229298 4.356704635
214 2 -16.3647884622 -18.8670707315 3.2806149339
215 2 -20.0146804957 -19.6255817727 4.8407427036
216 2 -17.362057598 -19.9809658543 -0.6696841871
217 2 -18.7417049705 -20.0094719256 2.07315257
218 2 -17.5310920893 -18.7108156995 5.7034360728
219 1 -3.9630123528 -23.3449760796 11.0365745083
220 1 -2.487555522 -26.3168548019 10.3043973813
221 1 -0.4994068809 -24.3448328554 12.7683772442
222 1 -0.7018882803 -24.0894515091 9.3862326991
223 1 0.0132848482 -27.0387852324 11.5548175664
224 1 2.7617171916 -25.0893082849 11.118035435
225 1 -8.4520013641 -24.5950675957 7.3221744602
226 1 -9.9274581949 -21.6231888734 8.0543515872
227 1 -6.6663341224 -22.3676643029 6.404009778
228 1 -6.463852723 -22.6230456492 9.7861543232
229 1 -3.2027286505 -23.3675210787 8.135812514
230 1 -5.9511609939 -25.3169980261 8.5725946453
231 2 -0.3529277043 -23.2594508474 11.134788569
232 2 -0.459599577 -26.0044542968 9.763303834
233 2 -1.5635405982 -24.5581070463 7.5045051074
234 2 -2.7298442253 -24.4018520143 9.9273262463
235 2 -1.563540611 -22.225499816 8.8512365452
236 2 -1.6259032168 -25.8481992376 12.1861250141
237 2 -8.3055222002 -23.5096855604 5.6885858261
238 2 -7.1392185731 -21.3333333893 4.6124960839
239 2 1.1397811841 -25.5354188502 12.1370697965
240 2 -0.0265224302 -25.379163769 14.5598909384
241 2 1.1397811969 -23.2028115979 13.4838011961
242 2 -8.3055221874 -21.1770783081 7.0353172258
243 2 -5.6022003924 -24.4869973423 10.321150477
244 2 -4.435896778 -22.310645144 9.245060776
245 2 -8.0857888115 -23.0691561852 10.8051885457
246 2 -5.4331659138 -23.4245402668 5.294761655
247 2 -6.8128132863 -23.4530463381 8.0375984121
248 2 -5.6022004051 -22.154390112 11.6678819149
249 1 2.0014334893 -25.0667632859 14.0187974293
250 1 5.2625575618 -25.8112387154 12.3684556201
251 2 3.623369484 -26.9532599729 11.6530316682
252 2 4.7896731111 -24.7769078018 10.576941926
253 2 3.6233694967 -24.6206527206 12.9997630678
254 2 6.4957257704 -26.8681146793 11.2592074971
255 1 -25.8326471612 -14.4858052788 1.5716625481
256 1 -22.3690416893 -15.4856620546 3.303465284
257 2 -25.4836865852 -13.6558046171 3.320218418
258 2 -26.6942994918 -12.6218535857 1.0366663942
259 2 -23.9909776967 -15.93177262 4.3224996455
260 2 -23.990977684 -13.5991653676 5.6692310451
261 1 -17.1648795495 -17.1849042619 9.1864501994
262 1 -15.6894227186 -20.1567829841 8.4542730724
263 1 -13.7012740776 -18.1847610376 10.9182529353
264 1 -13.903755477 -17.9293796913 7.5361083902
265 1 -13.1885823484 -20.8787134146 9.7046932575
266 1 -10.4401500051 -18.9292364671 9.2679111261
267 1 -21.6538685607 -18.4349957779 5.4720501513
268 1 -23.1293253916 -15.4631170556 6.2042272783
269 1 -19.8682013191 -16.2075924851 4.5538854691
270 1 -19.6657199197 -16.4629738314 7.9360300143
271 1 -16.4045958472 -17.2074492609 6.2856882051
272 1 -19.1530281905 -19.1569262083 6.7224703364
273 2 -13.554794901 -17.0993790296 9.2846642601
274 2 -13.6614667737 -19.844382479 7.9131795251
275 2 -14.7654077949 -18.3980352285 5.6543807985
276 2 -15.931711422 -18.2417801965 8.0772019374
277 2 -14.7654078076 -16.0654279982 7.0011122363
278 2 -14.8277704135 -19.6881274198 10.3360007052
279 2 -21.5073893969 -17.3496137427 3.8384615172
280 2 -20.3410857698 -15.1732615715 2.762371775
281 2 -12.0620860126 -19.3753470325 10.2869454876
282 2 -13.2283896269 -19.2190919512 12.7097666295
283 2 -12.0620859998 -17.0427397801 11.6336768872
284 2 -21.5073893841 -15.0170064903 5.1851929168
285 2 -18.804067589 -18.3269255246 8.4710261681
286 2 -17.6377639747 -16.1505733263 7.394936467
287 2 -21.2876560082 -16.9090843674 8.9550642368
288 2 -18.6350331105 -17.264468449 3.4446373461
289 2 -20.014680483 -17.2929745203 6.1874741032
290 2 -18.8040676018 -15.9943182942 9.817757606
291 1 -5.2359878653 -20.6284786744 15.1508960415
292 1 -3.7605310345 -23.6003573966 14.4187189144
293 1 -1.7723823934 -21.6283354501 16.8826987774
294 1 -1.9748637928 -21.3729541038 13.5005542323
295 1 -1.2596906643 -24.3222878271 15.6691390995
296 1 1.4887416791 -22.3728108796 15.2323569682
297 1 -9.7249768766 -21.8785701904 11.4364959934
298 1 -11.2004337074 -18.9066914681 12.1686731204
299 1 -7.9393096349 -19.6511668976 10.5183313112
300 1 -7.7368282355 -19.9065482439 13.9004758564
301 1 -4.475704163 -20.6510236734 12.2501340472
302 1 -7.2241365064 -22.6005006208 12.6869161785
303 2 -1.6259032168 -20.5429534421 15.2491101022
304 2 -1.7325750895 -23.2879568915 13.8776253672
305 2 -2.8365161107 -21.841609641 11.6188266406
306 2 -4.0028197378 -21.685354609 14.0416477795
307 2 -2.8365161235 -19.5090024107 12.9655580784
308 2 -2.8988787293 -23.1317018323 16.3004465473
309 2 -9.5784977127 -20.7931881552 9.8029073593
310 2 -8.4121940856 -18.616835984 8.7268176171
311 2 -0.1331943284 -22.818921445 16.2513913297
312 2 -1.2994979427 -22.6626663637 18.6742124716
313 2 -0.1331943156 -20.4863141926 17.5981227293
314 2 -9.5784976999 -18.4605809028 11.1496387589
315 2 -6.8751759049 -21.7704999371 14.4354720102
316 2 -5.7088722905 -19.5941477388 13.3593823091
317 2 -9.358764324 -20.3526587799 14.9195100789
318 2 -6.7061414263 -20.7080428615 9.4090831882
319 2 -8.0857887988 -20.7365489328 12.1519199453
320 2 -6.8751759176 -19.4378927067 15.782203448
321 1 0.7284579768 -22.3502658806 18.1331189625
322 1 3.9895820493 -23.0947413101 16.4827771533
323 2 2.3503939715 -24.2367625677 15.7673532014
324 2 3.5166975986 -22.0604103965 14.6912634592
325 2 2.3503939842 -21.9041553153 17.114084601
326 2 5.2227502579 -24.151617274 15.3735290303
327 1 -23.6420172018 -12.7691646494 7.4177868172
328 2 -26.7566620977 -10.9393072118 7.4345399512
329 2 -25.2639532092 -13.2152752147 8.4368211787
330 2 -25.2639531965 -10.8826679623 9.7835525783
331 1 -18.437855062 -14.4684068566 13.3007717326
332 1 -16.9623982311 -17.4402855788 12.5685946055
333 1 -14.9742495901 -15.4682636324 15.0325744685
334 1 -15.1767309895 -15.2128822861 11.6504299234
335 1 -14.4615578609 -18.1622160093 13.8190147906
336 1 -11.7131255176 -16.2127390619 13.3822326593
337 1 -22.9268440732 -15.7184983726 9.5863716845
338 1 -24.4023009041 -12.7466196503 10.3185488115
339 1 -21.1411768316 -13.4910950798 8.6682070023
340 1 -20.9386954322 -13.7464764261 12.0503515475
341 1 -17.6775713597 -14.4909518556 10.4000097383
342 1 -20.426003703 -16.4404288031 10.8367918696
343 2 -14.8277704135 -14.3828816243 13.3989857933
344 2 -14.9344422862 -17.1278850737 12.0275010583
345 2 -16.0383833074 -15.6815378233 9.7687023317
346 2 -17.2046869345 -15.5252827912 12.1915234706
347 2 -16.0383833201 -13.3489305929 11.1154337695
348 2 -16.100745926 -16.9716300145 14.4503222384
349 2 -22.7803649094 -14.6331163374 7.9527830504
350 2 -21.6140612823 -12.4567641663 6.8766933082
351 2 -13.3350615251 -16.6588496272 14.4012670208
352 2 -14.5013651394 -16.5025945459 16.8240881626
353 2 -13.3350615123 -14.3262423748 15.7479984204
354 2 -22.7803648966 -12.300509085 9.29951445
355 2 -20.0770431015 -15.6104281193 12.5853477013
356 2 -18.9107394872 -13.434075921 11.5092580002
357 2 -22.5606315207 -14.1925869621 13.06938577
358 2 -19.908008623 -14.5479710438 7.5589588793
359 2 -21.2876559955 -14.576477115 10.3017956364
360 2 -20.0770431143 -13.2778208889 13.9320791391
361 1 -6.5089633778 -17.9119812691 19.2652175747
362 1 -5.033506547 -20.8838599913 18.5330404476
363 1 -3.0453579059 -18.9118380449 20.9970203106
364 1 -3.2478393053 -18.6564566986 17.6148757655
365 1 -2.5326661768 -21.6057904218 19.7834606327
366 1 0.2157661666 -19.6563134744 19.3466785014
367 1 -10.9979523891 -19.1620727851 15.5508175266
368 1 -12.4734092199 -16.1901940628 16.2829946536
369 1 -9.2122851474 -16.9346694923 14.6326528444
370 1 -9.009803748 -17.1900508386 18.0147973896
371 1 -5.7486796755 -17.9345262681 16.3644555804
372 1 -8.4971120189 -19.8840032156 16.8012377117
373 2 -2.8988787293 -17.8264560368 19.3634316354
374 2 -3.005550602 -20.5714594862 17.9919469004
375 2 -4.1094916232 -19.1251122358 15.7331481738
376 2 -5.2757952503 -18.9688572037 18.1559693127
377 2 -4.109491636 -16.7925050054 17.0798796116
378 2 -4.1718542418 -20.415204427 20.4147680805
379 2 -10.8514732252 -18.0766907499 13.9172288925
380 2 -9.6851695981 -15.9003385788 12.8411391503
381 2 -1.4061698409 -20.1024240397 20.3657128629
382 2 -1.4061698281 -17.7698167873 21.7124442625
383 2 -10.8514732124 -15.7440834975 15.2639602921
384 2 -8.1481514174 -19.0540025318 18.5497935434
385 2 -6.981847803 -16.8776503335 17.4737038423
386 2 -10.6317398365 -17.6361613746 19.0338316121
387 2 -7.9791169388 -17.9915454563 13.5234047214
388 2 -9.3587643113 -18.0200515275 16.2662414785
389 2 -8.1481514301 -16.7213953014 19.8965249812
390 1 -0.5445175357 -19.6337684753 22.2474404957
391 1 2.7166065368 -20.3782439048 20.5970986865
392 2 1.077418459 -21.5202651624 19.8816747346
393 2 2.2437220861 -19.3439129913 18.8055849924
394 2 1.0774184717 -19.18765791 21.2284061342
395 2 3.9497747454 -21.4351198688 19.4878505635
396 1 -24.9149927143 -10.0526672441 11.5321083504
397 1 -19.7108305745 -11.7519094513 17.4150932658
398 1 -18.2353737436 -14.7237881736 16.6829161387
399 1 -16.2472251026 -12.7517662271 19.1468960017
400 1 -16.449706502 -12.4963848808 15.7647514566
401 1 -15.7345333734 -15.445718604 17.9333363238
402 1 -12.9861010301 -13.4962416566 17.4965541925
403 1 -22.4141523441 -10.7745976745 12.7825285355
404 1 -22.2116709447 -11.0299790208 16.1646730807
405 1 -18.9505468722 -11.7744544503 14.5143312715
406 1 -21.6989792155 -13.7239313978 14.9511134028
407 2 -16.100745926 -11.666384219 17.5133073265
408 2 -16.2074177987 -14.4113876684 16.1418225915
409 2 -17.3113588199 -12.965040418 13.8830238649
410 2 -18.477662447 -12.8087853859 16.3058450038
411 2 -17.3113588326 -10.6324331876 15.2297553027
412 2 -17.3737214385 -14.2551326092 18.5646437716
413 2 -24.0533404219 -11.9166189321 12.0671045836
414 2 -22.8870367948 -9.740266761 10.9910148414
415 2 -14.6080370376 -13.9423522219 18.515588554
416 2 -15.7743406519 -13.7860971407 20.9384096958
417 2 -14.6080370248 -11.6097449695 19.8623199536
418 2 -24.0533404091 -9.5840116797 13.4138359832
419 2 -20.1837149997 -10.7175785157 15.6235795334
420 2 -21.1809841355 -11.8314736385 11.6732804125
421 2 -22.560631508 -11.8599797097 14.4161171696
422 2 -21.3500186268 -10.5613234837 18.0464006723
423 1 -7.7819388903 -15.1954838638 23.3795391079
424 1 -6.3064820595 -18.1673625861 22.6473619808
425 1 -4.5208148178 -15.9399592933 21.7291972987
426 1 -1.0572093459 -16.9398160691 23.4610000346
427 1 -12.2709279016 -16.4455753798 19.6651390598
428 1 -13.7463847324 -13.4736966576 20.3973161868
429 1 -10.4852606599 -14.218172087 18.7469743776
430 1 -10.2827792605 -14.4735534333 22.1291189228
431 1 -7.021655188 -15.2180288628 20.4787771136
432 1 -9.7700875314 -17.1675058103 20.9155592449
433 2 -4.1718542418 -15.1099586315 23.4777531686
434 2 -4.2785261145 -17.8549620809 22.1062684336
435 2 -5.3824671357 -16.4086148305 19.847469707
436 2 -6.5487707628 -16.2523597984 22.2702908459
437 2 -5.3824671485 -14.0760076001 21.1942011448
438 2 -12.1244487377 -15.3601933446 18.0315504257
439 2 -10.9581451106 -13.1838411735 16.9554606835
440 2 -12.1244487249 -13.0275860922 19.3782818253
441 2 -9.4211269299 -16.3375051265 22.6641150766
442 2 -8.2548233155 -14.1611529282 21.5880253755
443 2 -9.2520924513 -15.275048051 17.6377262546
444 2 -10.6317398238 -15.3035541222 20.3805630117
445 2 -9.4211269426 -14.0048978962 24.0108465144
446 2 0.9707465736 -16.627415586 22.9199065256
447 1 -17.7226820145 -9.7798874755 19.8790729897
448 1 -14.2590765426 -10.7797442513 21.6108757257
449 1 -20.2235223847 -9.057957045 18.6286528046
450 2 -17.3737214385 -8.9498868138 21.6276288597
451 2 -17.4803933112 -11.6948902631 20.2561441247
452 2 -18.5843343324 -10.2485430127 17.9973453981
453 2 -18.5843343451 -7.9159357824 19.3440768359
454 2 -24.1600123073 -7.0237693557 15.1053363746
455 2 -15.8810125501 -11.2258548166 22.6299100872
456 2 -22.453959648 -9.1149762332 15.7876019457
457 1 -5.7937903303 -13.223461888 25.8435188318
458 1 -11.7582361724 -11.5016746818 22.8612959108
459 1 -8.2946307005 -12.5015314575 24.5930986467
460 2 -6.6554426482 -13.6921174252 23.9617912402
461 2 -6.655442661 -11.3595101949 25.308522678
462 2 -13.3974242502 -12.6436959393 22.1458719589
463 2 -12.2311206231 -10.4673437682 21.0697822167
464 2 -13.3974242374 -10.3110886869 23.4926033585
465 2 -9.527798828 -11.4446555229 25.7023469087
466 2 -10.5250679638 -12.5585506457 21.7520477878
467 2 -13.5040961356 -7.7508463629 25.1841037499
468 1 -9.5270264745 -25.8460356185 -11.0897624709
469 1 -6.0634210026 -26.8458923943 -9.3579597349
470 1 -2.8022969301 -27.5903678238 -11.0083015441
471 2 -5.916941826 -25.7605103863 -10.9915484102
472 2 -7.1275547326 -24.7265593549 -13.275100434
473 2 -5.5905365519 -27.8802233079 -7.5664460408
474 2 -4.4242329248 -25.7038711368 -8.642535783
475 2 -9.9999108997 -24.8117046829 -12.8812762032
476 2 -11.1662145268 -24.6554496509 -10.4584550643
477 1 2.4018652097 -29.289610031 -5.1253166288
478 1 -3.5625806324 -27.5678228248 -8.1075395498
479 1 -0.0989751605 -28.5676796006 -6.3757368139
480 2 4.8013369515 -28.1701337674 -7.3106545919
481 2 -0.7743410106 -27.2779673407 -11.5493950532
482 2 -1.9406446249 -27.1217122595 -9.1265739113
483 2 1.9289807845 -28.2552790954 -6.9168303611
484 2 -1.720911249 -29.0137901366 -5.3567025914
485 2 0.7626771574 -28.0990240634 -4.4940092222
486 1 -16.0041641268 -21.430296006 -12.858425853
487 2 -17.6261001215 -19.543799319 -10.4926600919
488 1 -10.800001987 -23.1295382133 -6.9754409377
489 1 -9.3245451561 -26.1014169355 -7.7076180647
490 1 -7.3363965151 -24.129394989 -5.2436382018
491 1 -7.5388779145 -23.8740136427 -8.6257827469
492 1 -6.8237047859 -26.823347366 -6.4571978796
493 1 -4.0752724426 -24.8738704185 -6.893980011
494 1 -16.7644478291 -21.407751007 -9.9576638587
495 1 -13.5033237566 -22.1522264365 -11.6080056679
496 1 -13.3008423572 -22.4076077828 -8.2258611228
497 1 -10.0397182847 -23.1520832123 -9.876202932
498 1 -12.788150628 -25.1015601597 -9.4394208007
499 2 -7.1899173385 -23.044012981 -6.877226877
500 2 -7.2965892112 -25.7890164304 -8.2487116119
501 2 -8.4005302324 -24.3426691799 -10.5075103386
502 2 -9.5668338595 -24.1864141479 -8.0846891997
503 2 -8.4005302451 -22.0100619496 -9.1607789008
504 2 -8.462892851 -25.6327613712 -5.8258904319
505 2 -13.9762082073 -21.1178955229 -13.3995193621
506 2 -5.6972084501 -25.3199809839 -5.8749456495
507 2 -6.8635120644 -25.1637259026 -3.4521245076
508 2 -5.6972084373 -22.9873737315 -4.5282142499
509 2 -15.1425118216 -20.9616404417 -10.9766982202
510 2 -12.4391900265 -24.2715594759 -7.6908649689
511 2 -11.2728864122 -22.0952072776 -8.76695467
512 2 -14.9227784457 -22.8537183188 -7.2068269003
513 2 -12.270155548 -23.2091024004 -12.7172537909
514 2 -13.6498029205 -23.2376084717 -9.9744170339
515 2 -12.4391900393 -21.9389522456 -6.3441335311
516 1 1.1288896972 -26.5731126258 -1.0109950956
517 1 2.604346528 -29.544991348 -1.7431722226
518 1 4.5924951691 -27.5729694015 0.7208076403
519 1 4.3900137697 -27.3175880552 -2.6613369048
520 1 7.8536192416 -28.317444831 -0.9295341689
521 1 -3.3600993141 -27.8232041418 -4.7253951437
522 1 -4.8355561449 -24.8513254195 -3.9932180167
523 1 -1.5744320724 -25.595800849 -5.6435598259
524 1 -1.371950673 -25.8511821953 -2.2614152807
525 1 1.8891733995 -26.5956576248 -3.9117570899
526 1 -0.8592589439 -28.5451345722 -3.4749749586
527 2 4.7389743457 -26.4875873935 -0.9127810349
528 2 4.632302473 -29.2325908429 -2.2842657699
529 2 3.5283614518 -27.7862435924 -4.5430644965
530 2 2.3620578247 -27.6299885604 -2.1202433576
531 2 3.528361439 -25.4536363621 -3.1963330587
532 2 3.4659988332 -29.0763357837 0.1385554102
533 2 -3.2136201502 -26.7378221066 -6.3589837778
534 2 -2.0473165231 -24.5614699354 -7.43507352
535 2 6.2316832341 -28.7635553964 0.0895001926
536 2 5.0653796198 -28.6073003151 2.5123213345
537 2 6.2316832469 -26.430948144 1.4362315922
538 2 -3.2136201374 -24.4052148542 -5.0122523781
539 2 -0.5102983424 -27.7151338884 -1.7264191268
540 2 0.656005272 -25.5387816901 -2.8025088279
541 2 -2.9938867615 -26.2972927313 -1.2423810582
542 2 -0.3412638638 -26.6526768129 -6.7528079488
543 2 -1.7209112363 -26.6811828842 -4.0099711918
544 2 -0.5102983551 -25.3825266581 -0.379687689
545 1 7.0933355393 -28.294899832 1.9712278254
546 2 9.8815751611 -28.0050443479 -1.4706276779
547 2 8.7152715467 -27.8487892667 0.952193464
548 1 -20.5382637118 -17.9693231713 -7.0937625107
549 1 -20.7407451112 -17.713941825 -10.4759070558
550 1 -17.2771396393 -18.7137986008 -8.7441043199
551 2 -20.3917845352 -16.8839411632 -8.7273511859
552 2 -21.6023974418 -15.8499901318 -11.0109032097
553 2 -18.8990756467 -19.1599091661 -7.7250699584
554 2 -20.0653792611 -19.0036540848 -5.3022488165
555 2 -18.899075634 -16.8273019137 -6.3783385588
556 1 -12.0729774995 -20.413040808 -2.8611194045
557 1 -10.5975206686 -23.3849195302 -3.5932965315
558 1 -8.6093720276 -21.4128975838 -1.1293166686
559 1 -8.811853427 -21.1575162375 -4.5114612137
560 1 -8.0966802984 -24.1068499607 -2.3428763464
561 1 -5.3482479551 -22.1573730133 -2.7796584778
562 1 -16.5619665107 -21.663132324 -6.5755194526
563 1 -18.0374233416 -18.6912536017 -5.8433423256
564 1 -14.7762992691 -19.4357290312 -7.4936841348
565 1 -14.5738178697 -19.6911103775 -4.1115395896
566 1 -11.3126937972 -20.435585807 -5.7618813988
567 1 -14.0611261405 -22.3850627545 -5.3250992675
568 2 -8.462892851 -20.3275155757 -2.7629053438
569 2 -8.5695647237 -23.0725190251 -4.1343900788
570 2 -9.6735057449 -21.6261717747 -6.3931888054
571 2 -10.839809372 -21.4699167426 -3.9703676665
572 2 -9.6735057576 -19.2935645443 -5.0464573676
573 2 -9.7358683635 -22.9162639659 -1.7115688987
574 2 -16.4154873469 -20.5777502888 -8.2091080867
575 2 -15.2491837198 -18.4013981177 -9.2851978289
576 2 -6.9701839626 -22.6034835786 -1.7606241163
577 2 -8.1364875769 -22.4472284973 0.6621970256
578 2 -6.9701839498 -20.2708763262 -0.4138927167
579 2 -16.4154873341 -18.2451430364 -6.862376687
580 2 -13.712165539 -21.5550620707 -3.5765434357
581 2 -12.5458619247 -19.3787098724 -4.6526331368
582 2 -16.1957539582 -20.1372209135 -3.0925053671
583 2 -13.5431310605 -20.4926049952 -8.6029322578
584 2 -14.922778433 -20.5211110664 -5.8600955007
585 2 -13.7121655518 -19.2224548403 -2.2298119979
586 1 -0.1440858153 -23.8566152205 3.1033264376
587 1 1.3313710155 -26.8284939427 2.3711493106
588 1 3.3195196566 -24.8564719963 4.8351291735
589 1 3.1170382572 -24.60109065 1.4529846284
590 1 3.8322113857 -27.5504243732 3.6215694957
591 1 6.5806437291 -25.6009474258 3.1847873643
592 1 -4.6330748266 -25.1067067365 -0.6110736105
593 1 -6.1085316574 -22.1348280142 0.1211035165
594 1 -2.8474075849 -22.8793034437 -1.5292382927
595 1 -2.6449261855 -23.13468479 1.8529062525
596 1 0.616197887 -23.8791602195 0.2025644433
597 1 -2.1322344564 -25.828637167 0.6393465746
598 2 3.4659988332 -23.7710899882 3.2015404983
599 2 3.3593269605 -26.5160934376 1.8300557633
600 2 2.2553859393 -25.0697461872 -0.4287429633
601 2 1.0890823122 -24.9134911551 1.9940781756
602 2 2.2553859265 -22.7371389568 0.9179884745
603 2 2.1930233207 -26.3598383784 4.2528769434
604 2 -4.4865956627 -24.0213247013 -2.2446622446
605 2 -3.3202920356 -21.8449725302 -3.3207519868
606 2 4.9587077216 -26.0470579911 4.2038217258
607 2 3.7924041073 -25.8908029098 6.6266428677
608 2 4.9587077344 -23.7144507387 5.5505531254
609 2 -4.4865956499 -21.6887174489 -0.8979308449
610 2 -1.7832738549 -24.9986364832 2.3879024064
611 2 -0.6169702405 -22.8222842849 1.3118127053
612 2 -4.266862274 -23.580795326 2.871940475
613 2 -1.6142393763 -23.9361794077 -2.6384864157
614 2 -2.9938867488 -23.9646854789 0.1043503414