# LAMMPS data file written by Ovito 3.10.6

360 atoms
2 atom types

-30.0 52.0 xlo xhi
-30.0 30.0 ylo yhi
-30.0 30.0 zlo zhi

Masses

1 55.845  # Fe3+
2 15.9994  # O2-

Atoms  # charge

1 1 0.0 -4.7904454901 -6.6488305746 -0.2431316815
2 1 0.0 -4.9929268895 -6.3934492283 -3.6252762266
3 1 0.0 -1.5293214176 -7.3933060041 -1.8934734907
4 2 0.0 -4.6439663135 -5.5634485666 -1.8767203567
5 2 0.0 -5.8545792201 -4.5294975352 -4.1602723805
6 2 0.0 -3.1512574251 -7.8394165694 -0.8744391292
7 2 0.0 -4.3175610394 -7.6831614882 1.5483820126
8 2 0.0 -3.1512574123 -5.506809317 0.4722922704
9 1 0.0 -2.2896051199 -7.3707610051 1.0072885036
10 1 0.0 0.9715189526 -8.1152364346 -0.6430533056
11 1 0.0 1.174000352 -8.3706177809 2.7390912396
12 2 0.0 -0.6676691252 -9.2572576921 -1.3584772575
13 2 0.0 0.4986345019 -7.080905521 -2.4345669997
14 2 0.0 -0.6676691124 -6.9246504397 -0.0117458579
15 2 0.0 3.201956297 -8.0582172757 2.1979976923
16 2 0.0 0.8250397887 -9.2006184698 0.9905353285
17 2 0.0 2.0356526699 -7.9019622437 4.6208188312
18 1 0.0 -6.0634210026 -3.9323331693 3.8711898517
19 1 0.0 -6.265902402 -3.676951823 0.4890453066
20 1 0.0 -5.5507292734 -6.6262855463 2.6576301738
21 1 0.0 -2.8022969301 -4.6768085988 2.2208480425
22 1 0.0 -8.7667427722 -2.9550213926 -0.7613748785
23 2 0.0 -5.916941826 -2.8469511613 2.2376011765
24 2 0.0 -6.0236136987 -5.5919546107 0.8661164415
25 2 0.0 -7.1275547199 -4.1456073602 -1.3926822851
26 2 0.0 -8.293858347 -3.9893523282 1.0301388538
27 2 0.0 -7.1275547326 -1.8130001299 -0.0459508473
28 2 0.0 -4.4242329376 -5.1229191641 3.239882404
29 2 0.0 -5.5905365519 -4.9666640829 5.6627035458
30 2 0.0 -4.4242329248 -2.7903119118 4.5866138036
31 1 0.0 -2.0871238016 -7.6261423221 4.3894329098
32 1 0.0 -3.5625806324 -4.6542635998 5.1216100368
33 1 0.0 -0.3014565599 -5.3987390293 3.4712682276
34 1 0.0 -0.0989751605 -5.6541203756 6.8534127728
35 1 0.0 3.162148912 -6.3985958051 5.2030709636
36 2 0.0 4.8013369515 -5.2565745424 5.9184949948
37 2 0.0 -1.9406446377 -6.5407602868 2.7558442757
38 2 0.0 -0.7743410106 -4.3644081157 1.6797545335
39 2 0.0 -1.9406446249 -4.2081530345 4.1025756753
40 2 0.0 1.9289807845 -5.3417198704 6.3123192255
41 2 0.0 0.9317116487 -6.4556149932 2.3620201046
42 2 0.0 -0.4479357238 -6.4841210645 5.1048568617
43 1 0.0 -7.5388779145 -0.9604544177 4.6033668397
44 1 0.0 -4.0752724426 -1.9603111935 6.3351695757
45 2 0.0 -7.2965892112 -2.8754572054 4.9804379747
46 2 0.0 -8.4005302324 -1.4291099549 2.7216392481
47 2 0.0 -8.4005302451 0.9034972754 4.0683706859
48 1 0.0 -1.5744320724 -2.682241624 7.5855897608
49 2 0.0 -3.2136201502 -3.8242628816 6.8701658089
50 2 0.0 -2.0473165231 -1.6479107104 5.7940760667
51 2 0.0 -3.2136201374 -1.4916556292 8.2168972085
52 2 0.0 -0.3412638638 -3.7391175879 6.4763416378
53 1 0.0 -5.708099937 -3.4441155344 -5.7938609549
54 1 0.0 -2.2444944651 -4.4439723102 -4.062058219
55 1 0.0 -2.4469758645 -4.1885909639 -7.4442027641
56 1 0.0 -1.7318027359 -7.1379246871 -5.2756178969
57 1 0.0 1.0166296074 -5.1884477396 -5.7124000282
58 2 0.0 -2.0980152885 -3.3585903021 -5.6956468942
59 2 0.0 -4.4749318095 -4.500991469 -6.9031092169
60 2 0.0 -3.3086281951 -2.3246392707 -7.979198918
61 2 0.0 -3.370990801 -5.9473386923 -4.6443104491
62 2 0.0 -0.6053064001 -5.634558305 -4.6933656667
63 2 0.0 -1.7716100144 -5.4783032237 -2.2705445249
64 2 0.0 -0.6053063873 -3.3019510526 -3.3466342671
65 2 0.0 -7.3472879893 -2.2535295667 -5.1625535484
66 1 0.0 6.2207917472 -6.8876899469 0.1705848872
67 1 0.0 1.7318027359 -8.1377814629 -3.5438151609
68 1 0.0 0.2563459051 -5.1659027406 -2.8116380339
69 1 0.0 3.5174699776 -5.9103781701 -4.4619798431
70 1 0.0 3.719951377 -6.1657595164 -1.0798352979
71 2 0.0 1.8782818998 -7.0523994277 -5.177403795
72 2 0.0 3.0445855269 -4.8760472565 -6.2534935372
73 2 0.0 1.8782819126 -4.7197921753 -3.8306723954
74 2 0.0 4.5816037076 -8.0297112096 -0.5448391441
75 2 0.0 5.747907322 -5.8533590113 -1.6209288452
76 2 0.0 2.0980152885 -6.6118700524 -0.0608010754
77 2 0.0 3.3709908137 -6.9957602053 -2.828391209
78 2 0.0 4.5816036949 -5.6971039792 0.8018922937
79 1 0.0 -6.9810754495 -0.7276181291 -1.6795394217
80 1 0.0 -5.5056186186 -3.6994968514 -2.4117165488
81 1 0.0 -3.5174699776 -1.7274749049 0.0522633142
82 1 0.0 -3.719951377 -1.4720935586 -3.3298812309
83 1 0.0 -3.0047782484 -4.4214272818 -1.1612963637
84 1 0.0 -0.2563459051 -2.4719503344 -1.598078495
85 1 0.0 -9.4819158197 -0.0056876986 -2.9299596068
86 1 0.0 -6.2207917472 -0.7501631281 -4.580301416
87 2 0.0 -3.370990801 -0.6420928968 -1.581325361
88 2 0.0 -3.4776626737 -3.3870963462 -2.952810096
89 2 0.0 -4.5816036949 -1.9407490958 -5.2116088226
90 2 0.0 -5.747907322 -1.7844940637 -2.7887876837
91 2 0.0 -4.5816037076 0.3918581346 -3.8648773848
92 2 0.0 -4.6439663135 -3.230841287 -0.5299889159
93 2 0.0 -1.8782819126 -2.9180608997 -0.5790441335
94 2 0.0 -3.0445855269 -2.7618058185 1.8437770083
95 2 0.0 -1.8782818998 -0.5854536473 0.7676872661
96 2 0.0 -8.620263489 -1.8696393918 -2.394963453
97 2 0.0 -7.4539598747 0.3067128065 -3.4710531541
98 2 0.0 -8.6202635018 0.4629678386 -1.0482320152
99 1 0.0 4.9478162347 -4.1711925416 4.2849064204
100 1 0.0 8.2089403072 -4.9156679711 2.6345646112
101 1 0.0 0.4588272234 -5.4212840576 0.5705063723
102 1 0.0 -1.0166296074 -2.4494053354 1.3026834993
103 1 0.0 2.2444944651 -3.1938807648 -0.3476583099
104 1 0.0 2.4469758645 -3.4492621111 3.0344862353
105 1 0.0 5.708099937 -4.1937375406 1.3841444261
106 1 0.0 2.9596675936 -6.1432144881 1.8209265574
107 2 0.0 7.3472879893 -5.3843235083 0.7528370195
108 2 0.0 6.1809843622 -5.2280684762 3.1756581584
109 2 0.0 7.3472879765 -3.0517162779 2.0995684573
110 2 0.0 0.6053063873 -4.3359020224 -1.0630822618
111 2 0.0 1.7716100144 -2.1595498513 -2.139172004
112 2 0.0 0.6053064001 -2.00329477 0.2836491378
113 2 0.0 3.3086281951 -5.3132138043 3.5694823891
114 2 0.0 4.4749318095 -3.136861606 2.493392688
115 2 0.0 0.825039776 -3.8953726472 4.0535204578
116 2 0.0 3.4776626737 -4.2507567288 -1.4569064329
117 2 0.0 2.0980153012 -4.2792628 1.2859303242
118 2 0.0 3.3086281824 -2.9806065739 4.9162138269
119 1 0.0 -8.254050962 1.9888792762 2.4347821114
120 1 0.0 -6.7785941311 -0.9829994461 1.7026049844
121 1 0.0 -4.7904454901 0.9890225004 4.1665848474
122 1 0.0 -4.9929268895 1.2444038467 0.7844403022
123 1 0.0 -4.2777537609 -1.7049298765 2.9530251695
124 1 0.0 -1.5293214176 0.2445470709 2.5162430382
125 1 0.0 -7.4937672597 1.9663342772 -0.4659798829
126 2 0.0 -4.6439663135 2.0744045084 2.5329961722
127 2 0.0 -4.7506381862 -0.6705989409 1.1615114372
128 2 0.0 -5.8545792074 0.7757483095 -1.0972872894
129 2 0.0 -7.0208828345 0.9320033415 1.3255338495
130 2 0.0 -5.8545792201 3.1083555398 0.2494441484
131 2 0.0 -5.916941826 -0.5143438817 3.5843326172
132 2 0.0 -3.1512574251 -0.2015634944 3.5352773997
133 2 0.0 -4.3175610394 -0.0453084132 5.9580985415
134 2 0.0 -3.1512574123 2.131043758 4.8820087993
135 2 0.0 -8.7269353872 3.0232102118 0.6432683791
136 1 0.0 3.6748407222 -1.4546951363 8.3992279535
137 1 0.0 6.9359647947 -2.1991705658 6.7488861443
138 1 0.0 -0.8141482891 -2.7047866523 4.6848279055
139 1 0.0 -2.2896051199 0.2670920699 5.4170050325
140 1 0.0 0.9715189526 -0.4773833596 3.7666632233
141 1 0.0 1.174000352 -0.7327647059 7.1488077684
142 1 0.0 4.4351244245 -1.4772401353 5.4984659592
143 1 0.0 1.6866920811 -3.4267170828 5.9352480906
144 2 0.0 6.0743124768 -2.667826103 4.8671585527
145 2 0.0 4.9080088497 -2.511571071 7.2899796916
146 2 0.0 6.074312464 -0.3352188727 6.2138899905
147 2 0.0 -0.6676691252 -1.6194046171 3.0512392714
148 2 0.0 0.4986345019 0.556947554 1.9751495292
149 2 0.0 -0.6676691124 0.7132026353 4.397970671
150 2 0.0 2.0356526826 -2.596716399 7.6838039223
151 2 0.0 3.201956297 -0.4203642007 6.6077142212
152 2 0.0 -0.4479357365 -1.1788752419 8.1678419909
153 2 0.0 2.2046871612 -1.5342593235 2.6574151003
154 2 0.0 0.8250397887 -1.5627653948 5.4002518574
155 2 0.0 2.0356526699 -0.2641091687 9.0305353601
156 1 0.0 -6.265902402 3.960901252 4.8987618354
157 1 0.0 -5.5507292734 1.0115675287 7.0673467027
158 1 0.0 -2.8022969301 2.9610444762 6.6305645714
159 2 0.0 -6.0236136987 2.0458984643 5.2758329704
160 2 0.0 -7.1275547199 3.4922457148 3.0170342438
161 2 0.0 -4.4242329376 2.5149339109 7.6495989329
162 1 0.0 -2.0871238016 0.0117107529 8.7991494387
163 1 0.0 -0.3014565599 2.2391140457 7.8809847565
164 2 0.0 -1.9406446377 1.0970927882 7.1655608046
165 2 0.0 -0.7743410106 3.2734449593 6.0894710624
166 2 0.0 -1.9406446249 3.4297000405 8.5122922042
167 2 0.0 0.9317116487 1.1822380818 6.7717366335
168 2 0.0 -0.4479357238 1.1537320105 9.5145733906
169 1 0.0 0.3014565599 -2.2391140457 -7.8809847565
170 2 0.0 -0.825039776 -3.7424804278 -8.4632369866
171 2 0.0 1.9406446249 -3.4297000405 -8.5122922042
172 2 0.0 0.7743410106 -3.2734449593 -6.0894710624
173 2 0.0 1.9406446377 -1.0970927882 -7.1655608046
174 1 0.0 2.8022969301 -2.9610444762 -6.6305645714
175 1 0.0 6.265902402 -3.960901252 -4.8987618354
176 2 0.0 4.4242329376 -2.5149339109 -7.6495989329
177 2 0.0 4.6439663135 -4.407011788 -3.8797276129
178 2 0.0 7.1275547199 -3.4922457148 -3.0170342438
179 1 0.0 -4.4351244245 1.4772401353 -5.4984659592
180 1 0.0 -2.9596675936 -1.4946385869 -6.2306430863
181 1 0.0 -0.9715189526 0.4773833596 -3.7666632233
182 1 0.0 -1.174000352 0.7327647059 -7.1488077684
183 1 0.0 -0.4588272234 -2.2165690174 -4.9802229012
184 1 0.0 2.2896051199 -0.2670920699 -5.4170050325
185 1 0.0 -6.9359647947 2.1991705658 -6.7488861443
186 1 0.0 -3.6748407222 1.4546951363 -8.3992279535
187 2 0.0 -0.825039776 1.5627653676 -5.4002518985
188 2 0.0 -0.9317116487 -1.1822380818 -6.7717366335
189 2 0.0 -2.0356526699 0.2641091687 -9.0305353601
190 2 0.0 -3.201956297 0.4203642007 -6.6077142212
191 2 0.0 -2.0356526826 2.596716399 -7.6838039223
192 2 0.0 -2.0980152885 -1.0259830226 -4.3489154534
193 2 0.0 0.6676691124 -0.7132026353 -4.397970671
194 2 0.0 -0.4986345019 -0.556947554 -1.9751495292
195 2 0.0 0.6676691252 1.6194046171 -3.0512392714
196 2 0.0 -6.074312464 0.3352188727 -6.2138899905
197 2 0.0 -4.9080088497 2.511571071 -7.2899796916
198 2 0.0 -6.0743124768 2.667826103 -4.8671585527
199 1 0.0 7.4937672597 -1.9663342772 0.4659798829
200 1 0.0 3.0047782484 -3.2164257932 -3.2484201652
201 1 0.0 1.5293214176 -0.2445470709 -2.5162430382
202 1 0.0 4.7904454901 -0.9890225004 -4.1665848474
203 1 0.0 4.9929268895 -1.2444038467 -0.7844403022
204 1 0.0 8.254050962 -1.9888792762 -2.4347821114
205 1 0.0 5.5056186186 -3.9383562236 -1.9979999801
206 2 0.0 8.7269353872 -3.0232102118 -0.6432683791
207 2 0.0 3.1512574123 -2.131043758 -4.8820087993
208 2 0.0 4.3175610394 0.0453084132 -5.9580985415
209 2 0.0 3.1512574251 0.2015634944 -3.5352773997
210 2 0.0 5.8545792201 -3.1083555398 -0.2494441484
211 2 0.0 7.0208828345 -0.9320033415 -1.3255338495
212 2 0.0 3.370990801 -1.6905143827 0.2345939203
213 2 0.0 6.0236136987 -2.0458984643 -5.2758329704
214 2 0.0 4.6439663262 -2.0744045356 -2.5329962133
215 2 0.0 5.8545792074 -0.7757483095 1.0972872894
216 1 0.0 -5.708099937 4.1937375406 -1.3841444261
217 1 0.0 -4.2326431061 1.2218588184 -2.1163215531
218 1 0.0 -2.2444944651 3.1938807648 0.3476583099
219 1 0.0 -2.4469758645 3.4492621111 -3.0344862353
220 1 0.0 -1.7318027359 0.4999283879 -0.865901368
221 1 0.0 1.0166296074 2.4494053354 -1.3026834993
222 1 0.0 -8.2089403072 4.9156679711 -2.6345646112
223 1 0.0 -4.9478162347 4.1711925416 -4.2849064204
224 1 0.0 -7.696248578 2.2217155941 -3.848124289
225 2 0.0 -2.0980152885 4.2792627729 -1.2859303653
226 2 0.0 -2.2046871612 1.5342593235 -2.6574151003
227 2 0.0 -3.3086281824 2.9806065739 -4.9162138269
228 2 0.0 -4.4749318095 3.136861606 -2.493392688
229 2 0.0 -3.3086281951 5.3132138043 -3.5694823891
230 2 0.0 -3.370990801 1.6905143827 -0.2345939203
231 2 0.0 -0.6053064001 2.00329477 -0.2836491378
232 2 0.0 -1.7716100144 2.1595498513 2.139172004
233 2 0.0 -0.6053063873 4.3359020224 1.0630822618
234 2 0.0 -7.3472879765 3.0517162779 -2.0995684573
235 2 0.0 -6.1809843622 5.2280684762 -3.1756581584
236 2 0.0 -7.3472879893 5.3843235083 -0.7528370195
237 1 0.0 6.2207917472 0.7501631281 4.580301416
238 1 0.0 7.696248578 -2.2217155941 3.848124289
239 1 0.0 9.4819158197 0.0056876986 2.9299596068
240 1 0.0 1.7318027359 -0.4999283879 0.865901368
241 1 0.0 0.2563459051 2.4719503344 1.598078495
242 1 0.0 3.5174699776 1.7274749049 -0.0522633142
243 1 0.0 3.719951377 1.4720935586 3.3298812309
244 1 0.0 6.9810754495 0.7276181291 1.6795394217
245 1 0.0 4.2326431061 -1.2218588184 2.1163215531
246 2 0.0 8.6202635018 -0.4629678386 1.0482320152
247 2 0.0 7.4539598747 -0.3067128065 3.4710531541
248 2 0.0 8.620263489 1.8696393918 2.394963453
249 2 0.0 1.8782818998 0.5854536473 -0.7676872661
250 2 0.0 3.0445855269 2.7618058185 -1.8437770083
251 2 0.0 1.8782819126 2.9180608997 0.5790441335
252 2 0.0 4.5816037076 -0.3918581346 3.8648773848
253 2 0.0 5.747907322 1.7844940637 2.7887876837
254 2 0.0 2.0980152885 1.0259830226 4.3489154534
255 2 0.0 4.7506381862 0.6705989409 -1.1615114372
256 2 0.0 3.3709908137 0.6420928697 1.5813253199
257 2 0.0 4.5816036949 1.9407490958 5.2116088226
258 1 0.0 -5.5056186186 3.9383562236 1.9979999801
259 1 0.0 -3.5174699776 5.9103781701 4.4619798431
260 1 0.0 -3.719951377 6.1657595164 1.0798352979
261 1 0.0 -3.0047782484 3.2164257932 3.2484201652
262 1 0.0 -0.2563459051 5.1659027406 2.8116380339
263 1 0.0 -6.2207917472 6.8876899469 -0.1705848872
264 2 0.0 -3.370990801 6.9957601782 2.8283911679
265 2 0.0 -3.4776626737 4.2507567288 1.4569064329
266 2 0.0 -4.5816036949 5.6971039792 -0.8018922937
267 2 0.0 -5.747907322 5.8533590113 1.6209288452
268 2 0.0 -4.5816037076 8.0297112096 0.5448391441
269 2 0.0 -4.6439663135 4.407011788 3.8797276129
270 2 0.0 -1.8782819126 4.7197921753 3.8306723954
271 2 0.0 -3.0445855269 4.8760472565 6.2534935372
272 2 0.0 -1.8782818998 7.0523994277 5.177403795
273 1 0.0 0.4588272234 2.2165690174 4.9802229012
274 1 0.0 -1.0166296074 5.1884477396 5.7124000282
275 1 0.0 2.2444944651 4.4439723102 4.062058219
276 1 0.0 2.4469758645 4.1885909639 7.4442027641
277 1 0.0 5.708099937 3.4441155344 5.7938609549
278 1 0.0 2.9596675936 1.4946385869 6.2306430863
279 2 0.0 7.3472879893 2.2535295667 5.1625535484
280 2 0.0 0.6053063873 3.3019510526 3.3466342671
281 2 0.0 1.7716100144 5.4783032237 2.2705445249
282 2 0.0 0.6053064001 5.634558305 4.6933656667
283 2 0.0 3.3086281951 2.3246392707 7.979198918
284 2 0.0 4.4749318095 4.500991469 6.9031092169
285 2 0.0 0.825039776 3.7424804278 8.4632369866
286 2 0.0 3.4776626737 3.3870963462 2.952810096
287 2 0.0 2.0980153012 3.358590275 5.6956468531
288 1 0.0 1.5744320724 2.682241624 -7.5855897608
289 1 0.0 2.0871238016 -0.0117107529 -8.7991494387
290 2 0.0 0.4479357365 1.1788752419 -8.1678419909
291 2 0.0 3.2136201374 1.4916556292 -8.2168972085
292 2 0.0 2.0473165231 1.6479107104 -5.7940760667
293 2 0.0 3.2136201502 3.8242628816 -6.8701658089
294 1 0.0 5.5507292734 -1.0115675287 -7.0673467027
295 1 0.0 4.0752724426 1.9603111935 -6.3351695757
296 1 0.0 7.5388779145 0.9604544177 -4.6033668397
297 2 0.0 8.4005302451 -0.9034972754 -4.0683706859
298 2 0.0 5.916941826 0.5143438817 -3.5843326172
299 2 0.0 8.4005302324 1.4291099549 -2.7216392481
300 1 0.0 -3.162148912 6.3985958051 -5.2030709636
301 1 0.0 -1.6866920811 3.4267170828 -5.9352480906
302 1 0.0 0.3014565599 5.3987390293 -3.4712682276
303 1 0.0 0.0989751605 5.6541203756 -6.8534127728
304 1 0.0 0.8141482891 2.7047866523 -4.6848279055
305 1 0.0 3.5625806324 4.6542635998 -5.1216100368
306 2 0.0 0.4479357365 6.4841210373 -5.1048569028
307 2 0.0 0.3412638638 3.7391175879 -6.4763416378
308 2 0.0 -1.9289807845 5.3417198704 -6.3123192255
309 2 0.0 -0.825039776 3.8953726472 -4.0535204578
310 2 0.0 1.9406446249 4.2081530345 -4.1025756753
311 2 0.0 0.7743410106 4.3644081157 -1.6797545335
312 2 0.0 1.9406446377 6.5407602868 -2.7558442757
313 2 0.0 -4.8013369515 5.2565745424 -5.9184949948
314 1 0.0 8.7667427722 2.9550213926 0.7613748785
315 1 0.0 4.2777537609 1.7049298765 -2.9530251695
316 1 0.0 2.8022969301 4.6768085988 -2.2208480425
317 1 0.0 6.0634210026 3.9323331693 -3.8711898517
318 1 0.0 6.265902402 3.676951823 -0.4890453066
319 1 0.0 6.7785941311 0.9829994461 -1.7026049844
320 2 0.0 4.4242329248 2.7903119118 -4.5866138036
321 2 0.0 5.5905365519 4.9666640829 -5.6627035458
322 2 0.0 4.4242329376 5.1229191641 -3.239882404
323 2 0.0 7.1275547326 1.8130001299 0.0459508473
324 2 0.0 8.293858347 3.9893523282 -1.0301388538
325 2 0.0 4.6439663135 3.230841287 0.5299889159
326 2 0.0 7.2965892112 2.8754572054 -4.9804379747
327 2 0.0 5.9169418387 2.8469511341 -2.2376012176
328 2 0.0 7.1275547199 4.1456073602 1.3926822851
329 1 0.0 -2.9596675936 6.1432144881 -1.8209265574
330 1 0.0 -0.9715189526 8.1152364346 0.6430533056
331 1 0.0 -1.174000352 8.3706177809 -2.7390912396
332 1 0.0 -0.4588272234 5.4212840576 -0.5705063723
333 1 0.0 2.2896051199 7.3707610051 -1.0072885036
334 2 0.0 -0.825039776 9.2006184426 -0.9905353696
335 2 0.0 -0.9317116487 6.4556149932 -2.3620201046
336 2 0.0 -2.0356526699 7.9019622437 -4.6208188312
337 2 0.0 -3.201956297 8.0582172757 -2.1979976923
338 2 0.0 -2.0980152885 6.6118700524 0.0608010754
339 2 0.0 0.6676691124 6.9246504397 0.0117458579
340 2 0.0 -0.4986345019 7.080905521 2.4345669997
341 2 0.0 0.6676691252 9.2572576921 1.3584772575
342 1 0.0 3.0047782484 4.4214272818 1.1612963637
343 1 0.0 1.5293214176 7.3933060041 1.8934734907
344 1 0.0 4.7904454901 6.6488305746 0.2431316815
345 1 0.0 4.9929268895 6.3934492283 3.6252762266
346 1 0.0 5.5056186186 3.6994968514 2.4117165488
347 2 0.0 3.1512574123 5.506809317 -0.4722922704
348 2 0.0 4.3175610394 7.6831614882 -1.5483820126
349 2 0.0 3.1512574251 7.8394165694 0.8744391292
350 2 0.0 5.8545792201 4.5294975352 4.1602723805
351 2 0.0 3.370990801 5.9473386923 4.6443104491
352 2 0.0 6.0236136987 5.5919546107 -0.8661164415
353 2 0.0 4.6439663262 5.5634485394 1.8767203156
354 1 0.0 -1.7318027359 8.1377814629 3.5438151609
355 1 0.0 1.7318027359 7.1379246871 5.2756178969
356 2 0.0 1.8782818998 8.2233067223 3.6420292628
357 2 0.0 3.3202920356 6.5692663802 -5.498681071
358 1 0.0 2.0871238016 7.6261423221 -4.3894329098
359 2 0.0 0.4479357365 8.8167283169 -3.7581254621
360 1 0.0 5.5507292734 6.6262855463 -2.6576301738
