# LAMMPS data file written by Ovito 3.10.6

4260 atoms
2 atom types

-22.0 22.0 xlo xhi
-22.0 22.0 ylo yhi
-22.0 22.0 zlo zhi

Masses

1 55.845  # Fe3+
2 15.9994  # O2-

Atoms  # atomic

1 2 -11.9522193651 -17.7620402138 -1.1478580916
2 1 -15.2757061755 -14.6990550816 -2.5917189525
3 1 -12.7297550995 -16.1689606206 -4.2954298725
4 1 -12.7297550995 -16.1689606206 -0.2960027693
5 1 -12.7297550995 -16.1689606206 -7.1831515943
6 2 -13.5072908849 -14.5758810274 -3.4435744125
7 2 -11.9522193651 -17.5156920173 -5.7392907334
8 2 -11.9522193906 -14.8222291798 -5.7392907334
9 2 -14.4981704156 -16.0457865223 -1.1478580916
10 2 -14.4981703901 -13.3523236849 -1.1478580916
11 2 -13.7206346558 -14.6990550816 -8.0350069166
12 1 -15.2757061755 -14.6990550816 0.2960027693
13 1 -12.7297550995 -16.1689606206 2.5917189525
14 1 -15.2757061755 -14.6990550816 4.2954298725
15 1 -12.7297550995 -16.1689606206 6.5911460557
16 2 -11.9522193906 -14.8222291798 8.0350069166
17 2 -11.1746836308 -16.1689606206 1.1478580916
18 2 -13.5072908594 -14.8222291798 1.1478580916
19 2 -13.7206346558 -14.6990550816 5.7392907334
20 2 -11.7388756197 -17.6388661155 3.4435744125
21 2 -16.0532419099 -13.3523236849 5.7392907334
22 1 -17.8216572005 -10.2893385527 -6.5911460557
23 1 -17.8216572005 -10.2893385527 -2.5917189525
24 1 -15.2757061245 -11.7592440917 -4.2954298725
25 1 -15.2757061245 -11.7592440917 -0.2960027693
26 1 -15.2757061245 -11.7592440917 -7.1831515943
27 2 -16.0532419099 -10.1661644985 -3.4435744125
28 2 -16.2665856553 -13.2291495866 -3.4435744125
29 2 -14.4981703901 -13.1059754884 -5.7392907334
30 2 -16.8307776442 -11.7592440917 -5.7392907334
31 2 -14.4981704156 -10.412512651 -5.7392907334
32 2 -17.0441214406 -11.6360699935 -1.1478580916
33 2 -19.3767286692 -10.2893385527 -1.1478580916
34 2 -17.0441214151 -8.942607156 -1.1478580916
35 2 -16.2665856808 -10.2893385527 -8.0350069166
36 1 -17.8216572005 -10.2893385527 7.1831515943
37 1 -15.2757061245 -11.7592440917 9.4788677775
38 1 -17.8216572005 -10.2893385527 0.2960027693
39 1 -15.2757061245 -11.7592440917 2.5917189525
40 1 -17.8216572005 -10.2893385527 4.2954298725
41 1 -15.2757061245 -11.7592440917 6.5911460557
42 2 -16.0532419099 -10.1661644985 10.3307232375
43 2 -14.4981703901 -13.1059754884 8.0350069166
44 2 -14.4981704156 -10.412512651 8.0350069166
45 2 -16.0532419099 -13.1059754884 1.1478580916
46 2 -13.7206346558 -11.7592440917 1.1478580916
47 2 -16.0532418844 -10.412512651 1.1478580916
48 2 -16.2665856808 -10.2893385527 5.7392907334
49 2 -14.2848266447 -13.2291495866 3.4435744125
50 2 -17.0441213897 -11.88241819 3.4435744125
51 2 -18.5991929349 -8.942607156 5.7392907334
52 1 -20.3676082255 -5.8796220238 -2.5917189525
53 1 -17.8216571495 -7.3495275628 -4.2954298725
54 1 -17.8216571495 -7.3495275628 -0.2960027693
55 1 -17.8216571495 -7.3495275628 -7.1831515943
56 2 -18.5991929349 -5.7564479696 -3.4435744125
57 2 -18.8125366803 -8.8194330578 -3.4435744125
58 2 -17.0441214151 -8.6962589595 -5.7392907334
59 2 -19.3767286692 -7.3495275628 -5.7392907334
60 2 -17.0441214406 -6.0027961221 -5.7392907334
61 2 -16.2665856808 -7.3495275628 -12.6264395584
62 2 -19.5900724656 -7.2263534646 -1.1478580916
63 2 -19.5900724401 -4.5328906271 -1.1478580916
64 2 -18.8125367058 -5.8796220238 -8.0350069166
65 2 -16.8307776697 -8.8194330578 -10.3307232375
66 1 -17.8216571495 -7.3495275628 9.4788677775
67 1 -20.3676082255 -5.8796220238 0.2960027693
68 1 -17.8216571495 -7.3495275628 2.5917189525
69 1 -20.3676082255 -5.8796220238 4.2954298725
70 1 -17.8216571495 -7.3495275628 6.5911460557
71 2 -17.0441214151 -8.6962589595 8.0350069166
72 2 -17.0441214406 -6.0027961221 8.0350069166
73 2 -18.5991929349 -8.6962589595 1.1478580916
74 2 -16.2665856808 -7.3495275628 1.1478580916
75 2 -18.5991929094 -6.0027961221 1.1478580916
76 2 -18.8125367058 -5.8796220238 5.7392907334
77 2 -16.8307776697 -8.8194330578 3.4435744125
78 2 -19.5900724147 -7.4727016611 3.4435744125
79 1 -20.3676081745 -2.939811034 -4.2954298725
80 1 -20.3676081745 -2.939811034 -0.2960027693
81 1 -20.3676081745 -2.939811034 -7.1831515943
82 2 -21.1451439599 -1.3467314408 -3.4435744125
83 2 -19.5900724401 -4.2865424306 -5.7392907334
84 2 -19.5900724656 -1.5930795932 -5.7392907334
85 1 -20.3676081745 -2.939811034 2.5917189525
86 1 -20.3676081745 -2.939811034 6.5911460557
87 2 -19.5900724401 -4.2865424306 8.0350069166
88 2 -19.5900724656 -1.5930795932 8.0350069166
89 2 -21.1451439599 -4.2865424306 1.1478580916
90 2 -18.8125367058 -2.939811034 1.1478580916
91 2 -21.1451439344 -1.5930795932 1.1478580916
92 2 -19.3767286947 -4.4097165289 3.4435744125
93 2 -21.3584877308 1.4699054949 1.1478580916
94 1 -7.6378531005 -19.1087716105 -6.5911460557
95 1 -7.6378531005 -19.1087716105 -2.5917189525
96 1 -5.0919020245 -20.5786771495 -4.2954298725
97 1 -5.0919020245 -20.5786771495 -0.2960027693
98 2 -5.8694378099 -18.9855975563 -3.4435744125
99 2 -4.3143663156 -19.2319457087 -5.7392907334
100 2 -6.8603173406 -20.4555030512 -1.1478580916
101 2 -9.1929245692 -19.1087716105 -1.1478580916
102 2 -6.8603173151 -17.7620402138 -1.1478580916
103 2 -6.0827815808 -19.1087716105 -8.0350069166
104 2 -8.4153888349 -17.7620402138 -8.0350069166
105 1 -7.6378531005 -19.1087716105 7.1831515943
106 1 -7.6378531005 -19.1087716105 0.2960027693
107 1 -5.0919020245 -20.5786771495 2.5917189525
108 1 -7.6378531005 -19.1087716105 4.2954298725
109 2 -4.3143663156 -19.2319457087 8.0350069166
110 2 -3.5368305558 -20.5786771495 1.1478580916
111 2 -5.8694377844 -19.2319457087 1.1478580916
112 2 -6.0827815808 -19.1087716105 5.7392907334
113 2 -9.4062683401 -18.9855975563 3.4435744125
114 2 -8.4153888349 -17.7620402138 5.7392907334
115 1 -10.1838041255 -14.6990550816 -6.5911460557
116 1 -10.1838041 -17.6388661155 -4.8874352734
117 1 -10.1838041255 -14.6990550816 -2.5917189525
118 1 -7.6378530495 -16.1689606206 -4.2954298725
119 1 -10.1838041 -17.6388661155 -1.9997135516
120 1 -7.6378530495 -16.1689606206 -0.2960027693
121 1 -7.6378530495 -16.1689606206 -11.1825786975
122 1 -10.1838041255 -14.6990550816 -9.4788677775
123 1 -7.6378530495 -16.1689606206 -7.1831515943
124 2 -8.4153888349 -14.5758810274 -3.4435744125
125 2 -8.6287325803 -17.6388661155 -3.4435744125
126 2 -6.8603173151 -17.5156920173 -5.7392907334
127 2 -9.1929245692 -16.1689606206 -5.7392907334
128 2 -6.8603173406 -14.8222291798 -5.7392907334
129 2 -10.9613398599 -16.2921346748 -3.4435744125
130 2 -6.0827815808 -16.1689606206 -12.6264395584
131 2 -9.4062683656 -16.0457865223 -1.1478580916
132 2 -11.7388755942 -14.6990550816 -1.1478580916
133 2 -9.4062683401 -13.3523236849 -1.1478580916
134 2 -8.4153888094 -14.8222291798 -12.6264395584
135 2 -10.9613398344 -16.0457865223 -8.0350069166
136 2 -8.6287326058 -14.6990550816 -8.0350069166
137 2 -11.9522193651 -14.5758810274 -10.3307232375
138 2 -6.6469735697 -17.6388661155 -10.3307232375
139 2 -9.4062683147 -16.2921347189 -10.3307232375
140 2 -10.9613398599 -13.3523236849 -8.0350069166
141 1 -10.1838041255 -14.6990550816 7.1831515943
142 1 -10.1838041255 -14.6990550816 11.1825786975
143 1 -7.6378530495 -16.1689606206 9.4788677775
144 1 -10.1838041 -17.6388661155 1.9997135516
145 1 -10.1838041255 -14.6990550816 0.2960027693
146 1 -7.6378530495 -16.1689606206 2.5917189525
147 1 -10.1838041255 -14.6990550816 4.2954298725
148 1 -7.6378530495 -16.1689606206 6.5911460557
149 1 -10.1838041 -17.6388661155 4.8874352734
150 2 -8.4153888349 -14.5758810274 10.3307232375
151 2 -6.8603173151 -17.5156920173 8.0350069166
152 2 -9.1929245692 -16.1689606206 8.0350069166
153 2 -6.8603173406 -14.8222291798 8.0350069166
154 2 -8.4153888349 -17.5156920173 1.1478580916
155 2 -6.0827815808 -16.1689606206 1.1478580916
156 2 -9.4062683401 -13.3523236849 12.6264395584
157 2 -8.4153888094 -14.8222291798 1.1478580916
158 2 -10.9613398344 -16.0457865223 5.7392907334
159 2 -8.6287326058 -14.6990550816 5.7392907334
160 2 -11.9522193651 -14.5758810274 3.4435744125
161 2 -6.6469735697 -17.6388661155 3.4435744125
162 2 -9.4062683147 -16.2921347189 3.4435744125
163 2 -10.9613398599 -13.3523236849 5.7392907334
164 1 -10.1838040745 -11.7592440917 -14.0703004193
165 2 -11.9522193651 -8.942607156 -14.9221557416
166 1 -12.7297551505 -10.2893385527 -6.5911460557
167 1 -12.729755125 -13.2291495866 -4.8874352734
168 1 -12.7297551505 -10.2893385527 -2.5917189525
169 1 -10.1838040745 -11.7592440917 -4.2954298725
170 1 -12.729755125 -13.2291495866 -1.9997135516
171 1 -10.1838040745 -11.7592440917 -0.2960027693
172 1 -12.7297551505 -10.2893385527 -13.4782948807
173 1 -10.1838040745 -11.7592440917 -11.1825786975
174 1 -12.7297551505 -10.2893385527 -9.4788677775
175 1 -10.1838040745 -11.7592440917 -7.1831515943
176 1 -12.729755125 -13.2291495866 -8.8868623766
177 2 -10.9613398599 -10.1661644985 -3.4435744125
178 2 -11.1746836053 -13.2291495866 -3.4435744125
179 2 -9.4062683401 -13.1059754884 -5.7392907334
180 2 -11.7388755942 -11.7592440917 -5.7392907334
181 2 -9.4062683656 -10.412512651 -5.7392907334
182 2 -13.5072908849 -11.8824181459 -3.4435744125
183 2 -10.9613398599 -13.1059754884 -12.6264395584
184 2 -8.6287326058 -11.7592440917 -12.6264395584
185 2 -11.9522193906 -11.6360699935 -1.1478580916
186 2 -14.2848266192 -10.2893385527 -1.1478580916
187 2 -11.9522193651 -8.942607156 -1.1478580916
188 2 -10.9613398344 -10.412512651 -12.6264395584
189 2 -13.5072908594 -11.6360699935 -8.0350069166
190 2 -11.1746836308 -10.2893385527 -8.0350069166
191 2 -14.4981703901 -10.1661644985 -10.3307232375
192 2 -9.1929245947 -13.2291495866 -10.3307232375
193 2 -11.9522193397 -11.88241819 -10.3307232375
194 2 -13.5072908849 -8.942607156 -8.0350069166
195 1 -12.7297551505 -10.2893385527 7.1831515943
196 1 -12.729755125 -13.2291495866 8.8868623766
197 1 -12.7297551505 -10.2893385527 11.1825786975
198 1 -10.1838040745 -11.7592440917 9.4788677775
199 1 -10.1838040745 -11.7592440917 13.4782948807
200 1 -12.729755125 -13.2291495866 1.9997135516
201 1 -12.7297551505 -10.2893385527 0.2960027693
202 1 -10.1838040745 -11.7592440917 2.5917189525
203 1 -12.7297551505 -10.2893385527 4.2954298725
204 1 -10.1838040745 -11.7592440917 6.5911460557
205 1 -12.729755125 -13.2291495866 4.8874352734
206 2 -10.9613398599 -10.1661644985 10.3307232375
207 2 -11.1746836053 -13.2291495866 10.3307232375
208 2 -9.4062683401 -13.1059754884 8.0350069166
209 2 -11.7388755942 -11.7592440917 8.0350069166
210 2 -9.4062683656 -10.412512651 8.0350069166
211 2 -13.5072908849 -11.8824181459 10.3307232375
212 2 -10.9613398599 -13.1059754884 1.1478580916
213 2 -8.6287326058 -11.7592440917 1.1478580916
214 2 -11.9522193906 -11.6360699935 12.6264395584
215 2 -14.2848266192 -10.2893385527 12.6264395584
216 2 -11.9522193651 -8.942607156 12.6264395584
217 2 -10.9613398344 -10.412512651 1.1478580916
218 2 -13.5072908594 -11.6360699935 5.7392907334
219 2 -11.1746836308 -10.2893385527 5.7392907334
220 2 -14.4981703901 -10.1661644985 3.4435744125
221 2 -9.1929245947 -13.2291495866 3.4435744125
222 2 -11.9522193397 -11.88241819 3.4435744125
223 2 -13.5072908849 -8.942607156 5.7392907334
224 1 -12.7297551505 -10.2893385527 14.0703004193
225 2 -8.6287326058 -11.7592440917 14.9221557416
226 2 -10.9613398344 -10.412512651 14.9221557416
227 1 -12.7297550995 -7.3495275628 -14.0703004193
228 2 -14.4981703901 -4.5328906271 -14.9221557416
229 1 -15.2757061755 -5.8796220238 -6.5911460557
230 1 -15.27570615 -8.8194330578 -4.8874352734
231 1 -15.2757061755 -5.8796220238 -2.5917189525
232 1 -12.7297550995 -7.3495275628 -4.2954298725
233 1 -15.27570615 -8.8194330578 -1.9997135516
234 1 -12.7297550995 -7.3495275628 -0.2960027693
235 1 -15.27570615 -8.8194330578 -11.7745840984
236 1 -15.2757061755 -5.8796220238 -13.4782948807
237 1 -12.7297550995 -7.3495275628 -11.1825786975
238 1 -15.2757061755 -5.8796220238 -9.4788677775
239 1 -12.7297550995 -7.3495275628 -7.1831515943
240 1 -15.27570615 -8.8194330578 -8.8868623766
241 2 -13.5072908849 -5.7564479696 -3.4435744125
242 2 -13.7206346303 -8.8194330578 -3.4435744125
243 2 -11.9522193651 -8.6962589595 -5.7392907334
244 2 -14.2848266192 -7.3495275628 -5.7392907334
245 2 -11.9522193906 -6.0027961221 -5.7392907334
246 2 -16.0532419099 -7.472701617 -3.4435744125
247 2 -13.5072908849 -8.6962589595 -12.6264395584
248 2 -11.1746836308 -7.3495275628 -12.6264395584
249 2 -14.4981704156 -7.2263534646 -1.1478580916
250 2 -16.8307776442 -5.8796220238 -1.1478580916
251 2 -14.4981703901 -4.5328906271 -1.1478580916
252 2 -13.5072908594 -6.0027961221 -12.6264395584
253 2 -16.0532418844 -7.2263534646 -8.0350069166
254 2 -13.7206346558 -5.8796220238 -8.0350069166
255 2 -17.0441214151 -5.7564479696 -10.3307232375
256 2 -11.7388756197 -8.8194330578 -10.3307232375
257 2 -14.4981703647 -7.4727016611 -10.3307232375
258 2 -16.0532419099 -4.5328906271 -8.0350069166
259 1 -15.2757061755 -5.8796220238 7.1831515943
260 1 -15.27570615 -8.8194330578 8.8868623766
261 1 -15.2757061755 -5.8796220238 11.1825786975
262 1 -12.7297550995 -7.3495275628 9.4788677775
263 1 -15.27570615 -8.8194330578 11.7745840984
264 1 -12.7297550995 -7.3495275628 13.4782948807
265 1 -15.27570615 -8.8194330578 1.9997135516
266 1 -15.2757061755 -5.8796220238 0.2960027693
267 1 -12.7297550995 -7.3495275628 2.5917189525
268 1 -15.2757061755 -5.8796220238 4.2954298725
269 1 -12.7297550995 -7.3495275628 6.5911460557
270 1 -15.27570615 -8.8194330578 4.8874352734
271 2 -13.5072908849 -5.7564479696 10.3307232375
272 2 -13.7206346303 -8.8194330578 10.3307232375
273 2 -11.9522193651 -8.6962589595 8.0350069166
274 2 -14.2848266192 -7.3495275628 8.0350069166
275 2 -11.9522193906 -6.0027961221 8.0350069166
276 2 -16.0532419099 -7.472701617 10.3307232375
277 2 -13.5072908849 -8.6962589595 1.1478580916
278 2 -11.1746836308 -7.3495275628 1.1478580916
279 2 -14.4981704156 -7.2263534646 12.6264395584
280 2 -16.8307776442 -5.8796220238 12.6264395584
281 2 -14.4981703901 -4.5328906271 12.6264395584
282 2 -13.5072908594 -6.0027961221 1.1478580916
283 2 -16.0532418844 -7.2263534646 5.7392907334
284 2 -13.7206346558 -5.8796220238 5.7392907334
285 2 -17.0441214151 -5.7564479696 3.4435744125
286 2 -11.7388756197 -8.8194330578 3.4435744125
287 2 -14.4981703647 -7.4727016611 3.4435744125
288 2 -16.0532419099 -4.5328906271 5.7392907334
289 1 -15.2757061755 -5.8796220238 14.0703004193
290 2 -13.5072908849 -8.6962589595 14.9221557416
291 2 -11.1746836308 -7.3495275628 14.9221557416
292 2 -13.5072908594 -6.0027961221 14.9221557416
293 1 -15.2757061245 -2.939811034 -14.0703004193
294 1 -17.8216572005 -1.4699054949 -6.5911460557
295 1 -17.821657175 -4.4097165289 -4.8874352734
296 1 -17.8216572005 -1.4699054949 -2.5917189525
297 1 -15.2757061245 -2.939811034 -4.2954298725
298 1 -17.821657175 -4.4097165289 -1.9997135516
299 1 -15.2757061245 -2.939811034 -0.2960027693
300 1 -15.2757061245 -2.939811034 -11.1825786975
301 1 -17.8216572005 -1.4699054949 -9.4788677775
302 1 -15.2757061245 -2.939811034 -7.1831515943
303 1 -17.821657175 -4.4097165289 -8.8868623766
304 2 -16.0532419099 -1.3467314408 -3.4435744125
305 2 -16.2665856553 -4.4097165289 -3.4435744125
306 2 -14.4981703901 -4.2865424306 -5.7392907334
307 2 -16.8307776442 -2.939811034 -5.7392907334
308 2 -14.4981704156 -1.5930795932 -5.7392907334
309 2 -18.5991929349 -3.0629850881 -3.4435744125
310 2 -16.0532419099 -4.2865424306 -12.6264395584
311 2 -13.7206346558 -2.939811034 -12.6264395584
312 2 -17.0441214406 -2.8166369357 -1.1478580916
313 2 -19.3767286692 -1.4699054949 -1.1478580916
314 2 -17.0441214151 -0.1231740983 -1.1478580916
315 2 -16.0532418844 -1.5930795932 -12.6264395584
316 2 -18.5991929094 -2.8166369357 -8.0350069166
317 2 -16.2665856808 -1.4699054949 -8.0350069166
318 2 -14.2848266447 -4.4097165289 -10.3307232375
319 2 -17.0441213897 -3.0629851322 -10.3307232375
320 2 -18.5991929349 -0.1231740983 -8.0350069166
321 1 -17.8216572005 -1.4699054949 7.1831515943
322 1 -17.821657175 -4.4097165289 8.8868623766
323 1 -17.8216572005 -1.4699054949 11.1825786975
324 1 -15.2757061245 -2.939811034 9.4788677775
325 1 -15.2757061245 -2.939811034 13.4782948807
326 1 -17.821657175 -4.4097165289 1.9997135516
327 1 -17.8216572005 -1.4699054949 0.2960027693
328 1 -15.2757061245 -2.939811034 2.5917189525
329 1 -17.8216572005 -1.4699054949 4.2954298725
330 1 -15.2757061245 -2.939811034 6.5911460557
331 1 -17.821657175 -4.4097165289 4.8874352734
332 2 -16.0532419099 -1.3467314408 10.3307232375
333 2 -16.2665856553 -4.4097165289 10.3307232375
334 2 -14.4981703901 -4.2865424306 8.0350069166
335 2 -16.8307776442 -2.939811034 8.0350069166
336 2 -14.4981704156 -1.5930795932 8.0350069166
337 2 -18.5991929349 -3.0629850881 10.3307232375
338 2 -16.0532419099 -4.2865424306 1.1478580916
339 2 -13.7206346558 -2.939811034 1.1478580916
340 2 -17.0441214406 -2.8166369357 12.6264395584
341 2 -17.0441214151 -0.1231740983 12.6264395584
342 2 -16.0532418844 -1.5930795932 1.1478580916
343 2 -18.5991929094 -2.8166369357 5.7392907334
344 2 -16.2665856808 -1.4699054949 5.7392907334
345 2 -19.5900724401 -1.3467314408 3.4435744125
346 2 -14.2848266447 -4.4097165289 3.4435744125
347 2 -17.0441213897 -3.0629851322 3.4435744125
348 2 -18.5991929349 -0.1231740983 5.7392907334
349 2 -13.7206346558 -2.939811034 14.9221557416
350 2 -16.0532418844 -1.5930795932 14.9221557416
351 1 -20.3676082255 2.939811034 -6.5911460557
352 1 -20.3676082 0.0 -4.8874352734
353 1 -20.3676082255 2.939811034 -2.5917189525
354 1 -17.8216571495 1.4699054949 -4.2954298725
355 1 -20.3676082 0.0 -1.9997135516
356 1 -17.8216571495 1.4699054949 -0.2960027693
357 1 -17.8216571495 1.4699054949 -11.1825786975
358 1 -17.8216571495 1.4699054949 -7.1831515943
359 2 -18.5991929349 3.0629850881 -3.4435744125
360 2 -18.8125366803 0.0 -3.4435744125
361 2 -17.0441214151 0.1231740983 -5.7392907334
362 2 -19.3767286692 1.4699054949 -5.7392907334
363 2 -17.0441214406 2.8166369357 -5.7392907334
364 2 -21.1451439599 1.3467314408 -3.4435744125
365 2 -16.2665856808 1.4699054949 -12.6264395584
366 2 -19.5900724656 1.5930795932 -1.1478580916
367 2 -19.5900724401 4.2865424306 -1.1478580916
368 2 -18.8125367058 2.939811034 -8.0350069166
369 2 -16.8307776697 0.0 -10.3307232375
370 1 -20.3676082255 2.939811034 7.1831515943
371 1 -17.8216571495 1.4699054949 9.4788677775
372 1 -20.3676082 0.0 1.9997135516
373 1 -20.3676082255 2.939811034 0.2960027693
374 1 -17.8216571495 1.4699054949 2.5917189525
375 1 -20.3676082255 2.939811034 4.2954298725
376 1 -17.8216571495 1.4699054949 6.5911460557
377 1 -20.3676082 0.0 4.8874352734
378 2 -18.5991929349 3.0629850881 10.3307232375
379 2 -18.8125366803 0.0 10.3307232375
380 2 -17.0441214151 0.1231740983 8.0350069166
381 2 -19.3767286692 1.4699054949 8.0350069166
382 2 -17.0441214406 2.8166369357 8.0350069166
383 2 -18.5991929349 0.1231740983 1.1478580916
384 2 -16.2665856808 1.4699054949 1.1478580916
385 2 -18.5991929094 2.8166369357 1.1478580916
386 2 -21.1451439344 1.5930795932 5.7392907334
387 2 -18.8125367058 2.939811034 5.7392907334
388 2 -16.8307776697 0.0 3.4435744125
389 2 -19.5900724147 1.3467313967 3.4435744125
390 1 -20.3676081745 5.8796220238 -4.2954298725
391 1 -20.3676081745 5.8796220238 -0.2960027693
392 2 -19.5900724401 4.5328906271 -5.7392907334
393 2 -19.5900724656 7.2263534646 -5.7392907334
394 1 -20.3676081745 5.8796220238 2.5917189525
395 2 -19.5900724401 4.5328906271 8.0350069166
396 2 -21.1451439599 4.5328906271 1.1478580916
397 2 -18.8125367058 5.8796220238 1.1478580916
398 2 -19.3767286947 4.4097165289 3.4435744125
399 1 -2.5459510505 -19.1087716105 -6.5911460557
400 1 -2.5459510505 -19.1087716105 -2.5917189525
401 1 2.5459506059e-08 -20.5786771495 -4.2954298725
402 1 2.5459506059e-08 -20.5786771495 -0.2960027693
403 1 -2.5459510505 -19.1087716105 -9.4788677775
404 1 2.5459506059e-08 -20.5786771495 -7.1831515943
405 2 -0.7775357599 -18.9855975563 -3.4435744125
406 2 -1.5550714942 -20.5786771495 -5.7392907334
407 2 0.7775357344 -19.2319457087 -5.7392907334
408 2 -3.3234867849 -20.7018512036 -3.4435744125
409 2 -1.7684152906 -20.4555030512 -1.1478580916
410 2 -4.1010225192 -19.1087716105 -1.1478580916
411 2 -1.7684152651 -17.7620402138 -1.1478580916
412 2 -0.9908795308 -19.1087716105 -8.0350069166
413 2 -3.3234867849 -17.7620402138 -8.0350069166
414 1 -2.5459510505 -19.1087716105 7.1831515943
415 1 -2.5459510505 -19.1087716105 0.2960027693
416 1 2.5459506059e-08 -20.5786771495 2.5917189525
417 1 -2.5459510505 -19.1087716105 4.2954298725
418 1 2.5459506059e-08 -20.5786771495 6.5911460557
419 2 -0.7775357599 -18.9855975563 10.3307232375
420 2 0.7775357344 -19.2319457087 8.0350069166
421 2 -0.7775357599 -21.9254085461 1.1478580916
422 2 1.5550714942 -20.5786771495 1.1478580916
423 2 -1.7684152651 -17.7620402138 12.6264395584
424 2 -0.7775357344 -19.2319457087 1.1478580916
425 2 -3.3234867594 -20.4555030512 5.7392907334
426 2 -0.9908795308 -19.1087716105 5.7392907334
427 2 -4.3143662901 -18.9855975563 3.4435744125
428 2 -1.7684152397 -20.7018512477 3.4435744125
429 2 -3.3234867849 -17.7620402138 5.7392907334
430 1 -2.5459509995 -16.1689606206 -14.0703004193
431 2 -6.6469735442 -14.6990550816 -14.9221557416
432 2 -4.3143662901 -13.3523236849 -14.9221557416
433 1 -5.0919020755 -14.6990550816 -6.5911460557
434 1 -5.09190205 -17.6388661155 -4.8874352734
435 1 -5.0919020755 -14.6990550816 -2.5917189525
436 1 -2.5459509995 -16.1689606206 -4.2954298725
437 1 -5.09190205 -17.6388661155 -1.9997135516
438 1 -2.5459509995 -16.1689606206 -0.2960027693
439 1 -5.0919020755 -14.6990550816 -13.4782948807
440 1 -2.5459509995 -16.1689606206 -11.1825786975
441 1 -5.0919020755 -14.6990550816 -9.4788677775
442 1 -2.5459509995 -16.1689606206 -7.1831515943
443 1 -5.09190205 -17.6388661155 -8.8868623766
444 2 -3.3234867849 -14.5758810274 -3.4435744125
445 2 -3.5368305303 -17.6388661155 -3.4435744125
446 2 -1.7684152651 -17.5156920173 -5.7392907334
447 2 -4.1010225192 -16.1689606206 -5.7392907334
448 2 -1.7684152906 -14.8222291798 -5.7392907334
449 2 -5.8694378099 -16.2921346748 -3.4435744125
450 2 -3.3234867849 -17.5156920173 -12.6264395584
451 2 -0.9908795308 -16.1689606206 -12.6264395584
452 2 -4.3143663156 -16.0457865223 -1.1478580916
453 2 -6.6469735442 -14.6990550816 -1.1478580916
454 2 -4.3143662901 -13.3523236849 -1.1478580916
455 2 -3.3234867594 -14.8222291798 -12.6264395584
456 2 -5.8694377844 -16.0457865223 -8.0350069166
457 2 -3.5368305558 -14.6990550816 -8.0350069166
458 2 -6.8603173151 -14.5758810274 -10.3307232375
459 2 -1.5550715197 -17.6388661155 -10.3307232375
460 2 -4.3143662647 -16.2921347189 -10.3307232375
461 2 -5.8694378099 -13.3523236849 -8.0350069166
462 1 -5.0919020755 -14.6990550816 7.1831515943
463 1 -5.09190205 -17.6388661155 8.8868623766
464 1 -5.0919020755 -14.6990550816 11.1825786975
465 1 -2.5459509995 -16.1689606206 9.4788677775
466 1 -2.5459509995 -16.1689606206 13.4782948807
467 1 -5.09190205 -17.6388661155 1.9997135516
468 1 -5.0919020755 -14.6990550816 0.2960027693
469 1 -2.5459509995 -16.1689606206 2.5917189525
470 1 -5.0919020755 -14.6990550816 4.2954298725
471 1 -2.5459509995 -16.1689606206 6.5911460557
472 1 -5.09190205 -17.6388661155 4.8874352734
473 2 -3.3234867849 -14.5758810274 10.3307232375
474 2 -3.5368305303 -17.6388661155 10.3307232375
475 2 -1.7684152651 -17.5156920173 8.0350069166
476 2 -4.1010225192 -16.1689606206 8.0350069166
477 2 -1.7684152906 -14.8222291798 8.0350069166
478 2 -5.8694378099 -16.2921346748 10.3307232375
479 2 -3.3234867849 -17.5156920173 1.1478580916
480 2 -0.9908795308 -16.1689606206 1.1478580916
481 2 -4.3143663156 -16.0457865223 12.6264395584
482 2 -6.6469735442 -14.6990550816 12.6264395584
483 2 -4.3143662901 -13.3523236849 12.6264395584
484 2 -3.3234867594 -14.8222291798 1.1478580916
485 2 -5.8694377844 -16.0457865223 5.7392907334
486 2 -3.5368305558 -14.6990550816 5.7392907334
487 2 -6.8603173151 -14.5758810274 3.4435744125
488 2 -1.5550715197 -17.6388661155 3.4435744125
489 2 -4.3143662647 -16.2921347189 3.4435744125
490 2 -5.8694378099 -13.3523236849 5.7392907334
491 1 -5.0919020755 -14.6990550816 14.0703004193
492 2 -3.3234867594 -14.8222291798 14.9221557416
493 1 -7.6378531005 -10.2893385527 -16.3660166025
494 1 -5.0919020245 -11.7592440917 -14.0703004193
495 2 -5.8694378099 -10.1661644985 -17.2178720625
496 2 -6.8603173406 -11.6360699935 -14.9221557416
497 2 -9.1929245692 -10.2893385527 -14.9221557416
498 2 -6.8603173151 -8.942607156 -14.9221557416
499 1 -7.6378531005 -10.2893385527 -6.5911460557
500 1 -7.637853075 -13.2291495866 -4.8874352734
501 1 -7.6378531005 -10.2893385527 -2.5917189525
502 1 -5.0919020245 -11.7592440917 -4.2954298725
503 1 -7.637853075 -13.2291495866 -1.9997135516
504 1 -5.0919020245 -11.7592440917 -0.2960027693
505 1 -7.637853075 -13.2291495866 -11.7745840984
506 1 -7.6378531005 -10.2893385527 -13.4782948807
507 1 -5.0919020245 -11.7592440917 -11.1825786975
508 1 -7.6378531005 -10.2893385527 -9.4788677775
509 1 -5.0919020245 -11.7592440917 -7.1831515943
510 1 -7.637853075 -13.2291495866 -8.8868623766
511 2 -5.8694378099 -10.1661644985 -3.4435744125
512 2 -6.0827815553 -13.2291495866 -3.4435744125
513 2 -4.3143662901 -13.1059754884 -5.7392907334
514 2 -6.6469735442 -11.7592440917 -5.7392907334
515 2 -4.3143663156 -10.412512651 -5.7392907334
516 2 -8.4153888349 -11.8824181459 -3.4435744125
517 2 -5.8694378099 -13.1059754884 -12.6264395584
518 2 -3.5368305558 -11.7592440917 -12.6264395584
519 2 -6.8603173406 -11.6360699935 -1.1478580916
520 2 -9.1929245692 -10.2893385527 -1.1478580916
521 2 -6.8603173151 -8.942607156 -1.1478580916
522 2 -5.8694377844 -10.412512651 -12.6264395584
523 2 -8.4153888094 -11.6360699935 -8.0350069166
524 2 -6.0827815808 -10.2893385527 -8.0350069166
525 2 -9.4062683401 -10.1661644985 -10.3307232375
526 2 -4.1010225447 -13.2291495866 -10.3307232375
527 2 -6.8603172897 -11.88241819 -10.3307232375
528 2 -8.4153888349 -8.942607156 -8.0350069166
529 1 -7.6378531005 -10.2893385527 7.1831515943
530 1 -7.637853075 -13.2291495866 8.8868623766
531 1 -7.6378531005 -10.2893385527 11.1825786975
532 1 -5.0919020245 -11.7592440917 9.4788677775
533 1 -7.637853075 -13.2291495866 11.7745840984
534 1 -5.0919020245 -11.7592440917 13.4782948807
535 1 -7.637853075 -13.2291495866 1.9997135516
536 1 -7.6378531005 -10.2893385527 0.2960027693
537 1 -5.0919020245 -11.7592440917 2.5917189525
538 1 -7.6378531005 -10.2893385527 4.2954298725
539 1 -5.0919020245 -11.7592440917 6.5911460557
540 1 -7.637853075 -13.2291495866 4.8874352734
541 2 -5.8694378099 -10.1661644985 10.3307232375
542 2 -6.0827815553 -13.2291495866 10.3307232375
543 2 -4.3143662901 -13.1059754884 8.0350069166
544 2 -6.6469735442 -11.7592440917 8.0350069166
545 2 -4.3143663156 -10.412512651 8.0350069166
546 2 -8.4153888349 -11.8824181459 10.3307232375
547 2 -5.8694378099 -13.1059754884 1.1478580916
548 2 -3.5368305558 -11.7592440917 1.1478580916
549 2 -6.8603173406 -11.6360699935 12.6264395584
550 2 -9.1929245692 -10.2893385527 12.6264395584
551 2 -6.8603173151 -8.942607156 12.6264395584
552 2 -5.8694377844 -10.412512651 1.1478580916
553 2 -8.4153888094 -11.6360699935 5.7392907334
554 2 -6.0827815808 -10.2893385527 5.7392907334
555 2 -9.4062683401 -10.1661644985 3.4435744125
556 2 -4.1010225447 -13.2291495866 3.4435744125
557 2 -6.8603172897 -11.88241819 3.4435744125
558 2 -8.4153888349 -8.942607156 5.7392907334
559 1 -7.6378531005 -10.2893385527 14.0703004193
560 1 -5.0919020245 -11.7592440917 16.3660166025
561 2 -5.8694378099 -13.1059754884 14.9221557416
562 2 -3.5368305558 -11.7592440917 14.9221557416
563 2 -5.8694377844 -10.412512651 14.9221557416
564 1 -10.1838041255 -5.8796220238 -16.3660166025
565 1 -7.6378530495 -7.3495275628 -18.0697275225
566 1 -10.1838041 -8.8194330578 -15.7740112016
567 1 -7.6378530495 -7.3495275628 -14.0703004193
568 2 -8.4153888349 -5.7564479696 -17.2178720625
569 2 -8.6287325803 -8.8194330578 -17.2178720625
570 2 -6.8603173406 -6.0027961221 -19.5135883834
571 2 -10.9613398599 -7.472701617 -17.2178720625
572 2 -9.4062683656 -7.2263534646 -14.9221557416
573 2 -11.7388755942 -5.8796220238 -14.9221557416
574 2 -9.4062683401 -4.5328906271 -14.9221557416
575 1 -10.1838041255 -5.8796220238 -6.5911460557
576 1 -10.1838041 -8.8194330578 -4.8874352734
577 1 -10.1838041255 -5.8796220238 -2.5917189525
578 1 -7.6378530495 -7.3495275628 -4.2954298725
579 1 -10.1838041 -8.8194330578 -1.9997135516
580 1 -7.6378530495 -7.3495275628 -0.2960027693
581 1 -10.1838041 -8.8194330578 -11.7745840984
582 1 -10.1838041255 -5.8796220238 -13.4782948807
583 1 -7.6378530495 -7.3495275628 -11.1825786975
584 1 -10.1838041255 -5.8796220238 -9.4788677775
585 1 -7.6378530495 -7.3495275628 -7.1831515943
586 1 -10.1838041 -8.8194330578 -8.8868623766
587 2 -8.4153888349 -5.7564479696 -3.4435744125
588 2 -8.6287325803 -8.8194330578 -3.4435744125
589 2 -6.8603173151 -8.6962589595 -5.7392907334
590 2 -9.1929245692 -7.3495275628 -5.7392907334
591 2 -6.8603173406 -6.0027961221 -5.7392907334
592 2 -10.9613398599 -7.472701617 -3.4435744125
593 2 -8.4153888349 -8.6962589595 -12.6264395584
594 2 -6.0827815808 -7.3495275628 -12.6264395584
595 2 -9.4062683656 -7.2263534646 -1.1478580916
596 2 -11.7388755942 -5.8796220238 -1.1478580916
597 2 -9.4062683401 -4.5328906271 -1.1478580916
598 2 -8.4153888094 -6.0027961221 -12.6264395584
599 2 -10.9613398344 -7.2263534646 -8.0350069166
600 2 -8.6287326058 -5.8796220238 -8.0350069166
601 2 -11.9522193651 -5.7564479696 -10.3307232375
602 2 -6.6469735697 -8.8194330578 -10.3307232375
603 2 -9.4062683147 -7.4727016611 -10.3307232375
604 2 -10.9613398599 -4.5328906271 -8.0350069166
605 1 -10.1838041255 -5.8796220238 7.1831515943
606 1 -10.1838041 -8.8194330578 8.8868623766
607 1 -10.1838041255 -5.8796220238 11.1825786975
608 1 -7.6378530495 -7.3495275628 9.4788677775
609 1 -10.1838041 -8.8194330578 11.7745840984
610 1 -7.6378530495 -7.3495275628 13.4782948807
611 1 -10.1838041 -8.8194330578 1.9997135516
612 1 -10.1838041255 -5.8796220238 0.2960027693
613 1 -7.6378530495 -7.3495275628 2.5917189525
614 1 -10.1838041255 -5.8796220238 4.2954298725
615 1 -7.6378530495 -7.3495275628 6.5911460557
616 1 -10.1838041 -8.8194330578 4.8874352734
617 2 -8.4153888349 -5.7564479696 10.3307232375