# LAMMPS data file written by Ovito 3.10.6

14150 atoms
2 atom types

-26.0 128.0 xlo xhi
-26.0 26.0 ylo yhi
-26.0 26.0 zlo zhi

Masses

1 55.845  # Fe3+
2 15.9994  # O2-

Atoms  # atomic

1 1 -11.357804452 -23.3623745019 -0.6925346762
2 1 -7.8941989801 -24.3622312777 1.0392680597
3 2 -11.008843876 -22.5323738402 1.0560211937
4 2 -12.2194567826 -21.4984228088 -1.2275308301
5 2 -9.5161349748 -22.4757345906 3.4050338208
6 1 -5.3933586099 -25.0841617082 2.2896882448
7 2 -0.2905650985 -24.9419972213 4.736915012
8 2 -5.8662430606 -24.0498307946 0.4981745507
9 2 -7.0325466749 -23.8935757133 2.9209956926
10 2 -3.1629212655 -25.0271425493 5.1307392428
11 1 -15.891904037 -19.9014016671 5.0721286662
12 1 -12.4282985651 -20.9012584429 6.8039314021
13 1 -12.6307799645 -20.6458770966 3.421786857
14 1 -9.1671744926 -21.6457338724 5.1535895929
15 1 -15.1316203347 -19.9239466662 2.1713666719
16 2 -12.2818193885 -19.8158764349 5.1703427269
17 2 -13.4924322824 -21.1145326338 1.5400592653
18 2 -14.6587359095 -20.9582776018 3.9628804042
19 2 -13.4924322951 -18.7819254035 2.8867907031
20 2 -10.7891105001 -22.0918444377 6.1726239544
21 2 -10.7891104873 -19.7592371854 7.519355354
22 2 -16.3647884622 -18.8670707315 3.2806149339
23 1 -0.7018882803 -24.0894515091 9.3862326991
24 1 -9.9274581949 -21.6231888734 8.0543515872
25 1 -6.6663341224 -22.3676643029 6.404009778
26 1 -6.463852723 -22.6230456492 9.7861543232
27 1 -3.2027286505 -23.3675210787 8.135812514
28 2 -0.3529277043 -23.2594508474 11.134788569
29 2 -1.5635405982 -24.5581070463 7.5045051074
30 2 -1.563540611 -22.225499816 8.8512365452
31 2 -8.3055222002 -23.5096855604 5.6885858261
32 2 -7.1392185731 -21.3333333893 4.6124960839
33 2 -8.3055221874 -21.1770783081 7.0353172258
34 2 -4.435896778 -22.310645144 9.245060776
35 2 -5.4331659138 -23.4245402668 5.294761655
36 2 -6.8128132863 -23.4530463381 8.0375984121
37 2 -5.6022004051 -22.154390112 11.6678819149
38 1 -17.1648795495 -17.1849042619 9.1864501994
39 1 -13.7012740776 -18.1847610376 10.9182529353
40 1 -13.903755477 -17.9293796913 7.5361083902
41 1 -10.4401500051 -18.9292364671 9.2679111261
42 1 -16.4045958472 -17.2074492609 6.2856882051
43 2 -13.554794901 -17.0993790296 9.2846642601
44 2 -13.6614667737 -19.844382479 7.9131795251
45 2 -14.7654077949 -18.3980352285 5.6543807985
46 2 -15.931711422 -18.2417801965 8.0772019374
47 2 -14.7654078076 -16.0654279982 7.0011122363
48 2 -20.3410857698 -15.1732615715 2.762371775
49 2 -12.0620860126 -19.3753470325 10.2869454876
50 2 -12.0620859998 -17.0427397801 11.6336768872
51 2 -17.6377639747 -16.1505733263 7.394936467
52 2 -18.6350331105 -17.264468449 3.4446373461
53 1 -1.9748637928 -21.3729541038 13.5005542323
54 1 -11.2004337074 -18.9066914681 12.1686731204
55 1 -7.9393096349 -19.6511668976 10.5183313112
56 1 -7.7368282355 -19.9065482439 13.9004758564
57 1 -4.475704163 -20.6510236734 12.2501340472
58 2 -1.6259032168 -20.5429534421 15.2491101022
59 2 -2.8365161107 -21.841609641 11.6188266406
60 2 -2.8365161235 -19.5090024107 12.9655580784
61 2 -9.5784977127 -20.7931881552 9.8029073593
62 2 -8.4121940856 -18.616835984 8.7268176171
63 2 -9.5784976999 -18.4605809028 11.1496387589
64 2 -5.7088722905 -19.5941477388 13.3593823091
65 2 -6.7061414263 -20.7080428615 9.4090831882
66 2 -8.0857887988 -20.7365489328 12.1519199453
67 1 -15.1767309895 -15.2128822861 11.6504299234
68 1 -11.7131255176 -16.2127390619 13.3822326593
69 1 -17.6775713597 -14.4909518556 10.4000097383
70 2 -14.8277704135 -14.3828816243 13.3989857933
71 2 -14.9344422862 -17.1278850737 12.0275010583
72 2 -16.0383833074 -15.6815378233 9.7687023317
73 2 -16.0383833201 -13.3489305929 11.1154337695
74 2 -21.6140612823 -12.4567641663 6.8766933082
75 2 -13.3350615251 -16.6588496272 14.4012670208
76 2 -13.3350615123 -14.3262423748 15.7479984204
77 2 -18.9107394872 -13.434075921 11.5092580002
78 2 -19.908008623 -14.5479710438 7.5589588793
79 1 -3.2478393053 -18.6564566986 17.6148757655
80 1 -9.2122851474 -16.9346694923 14.6326528444
81 1 -5.7486796755 -17.9345262681 16.3644555804
82 2 -4.1094916232 -19.1251122358 15.7331481738
83 2 -4.109491636 -16.7925050054 17.0798796116
84 2 -10.8514732252 -18.0766907499 13.9172288925
85 2 -9.6851695981 -15.9003385788 12.8411391503
86 2 -10.8514732124 -15.7440834975 15.2639602921
87 2 -6.981847803 -16.8776503335 17.4737038423
88 2 -7.9791169388 -17.9915454563 13.5234047214
89 1 -16.449706502 -12.4963848808 15.7647514566
90 1 -12.9861010301 -13.4962416566 17.4965541925
91 2 -17.3113588199 -12.965040418 13.8830238649
92 2 -17.3113588326 -10.6324331876 15.2297553027
93 1 -10.4852606599 -14.218172087 18.7469743776
94 2 -10.9581451106 -13.1838411735 16.9554606835
95 2 -9.2520924513 -15.275048051 17.6377262546
96 1 -7.3363965151 -24.129394989 -5.2436382018
97 2 -7.1899173385 -23.044012981 -6.877226877
98 2 -8.4005302451 -22.0100619496 -9.1607789008
99 2 -5.6972084373 -22.9873737315 -4.5282142499
100 1 -4.8355561449 -24.8513254195 -3.9932180167
101 1 -1.371950673 -25.8511821953 -2.2614152807
102 2 3.528361439 -25.4536363621 -3.1963330587
103 2 -2.0473165231 -24.5614699354 -7.43507352
104 2 -3.2136201374 -24.4052148542 -5.0122523781
105 2 0.656005272 -25.5387816901 -2.8025088279
106 2 -0.5102983551 -25.3825266581 -0.379687689
107 1 -12.0729774995 -20.413040808 -2.8611194045
108 1 -10.5975206686 -23.3849195302 -3.5932965315
109 1 -8.6093720276 -21.4128975838 -1.1293166686
110 1 -8.811853427 -21.1575162375 -4.5114612137
111 1 -8.0966802984 -24.1068499607 -2.3428763464
112 1 -5.3482479551 -22.1573730133 -2.7796584778
113 1 -14.7762992691 -19.4357290312 -7.4936841348
114 1 -14.5738178697 -19.6911103775 -4.1115395896
115 1 -11.3126937972 -20.435585807 -5.7618813988
116 2 -8.462892851 -20.3275155757 -2.7629053438
117 2 -8.5695647237 -23.0725190251 -4.1343900788
118 2 -9.6735057449 -21.6261717747 -6.3931888054
119 2 -10.839809372 -21.4699167426 -3.9703676665
120 2 -9.6735057576 -19.2935645443 -5.0464573676
121 2 -9.7358683635 -22.9162639659 -1.7115688987
122 2 -15.2491837198 -18.4013981177 -9.2851978289
123 2 -6.9701839626 -22.6034835786 -1.7606241163
124 2 -8.1364875769 -22.4472284973 0.6621970256
125 2 -6.9701839498 -20.2708763262 -0.4138927167
126 2 -16.4154873341 -18.2451430364 -6.862376687
127 2 -13.712165539 -21.5550620707 -3.5765434357
128 2 -12.5458619247 -19.3787098724 -4.6526331368
129 2 -13.7121655518 -19.2224548403 -2.2298119979
130 1 -0.1440858153 -23.8566152205 3.1033264376
131 1 3.3195196566 -24.8564719963 4.8351291735
132 1 3.1170382572 -24.60109065 1.4529846284
133 1 -4.6330748266 -25.1067067365 -0.6110736105
134 1 -6.1085316574 -22.1348280142 0.1211035165
135 1 -2.8474075849 -22.8793034437 -1.5292382927
136 1 -2.6449261855 -23.13468479 1.8529062525
137 1 0.616197887 -23.8791602195 0.2025644433
138 1 -2.1322344564 -25.828637167 0.6393465746
139 2 3.4659988332 -23.7710899882 3.2015404983
140 2 2.2553859393 -25.0697461872 -0.4287429633
141 2 1.0890823122 -24.9134911551 1.9940781756
142 2 2.2553859265 -22.7371389568 0.9179884745
143 2 -4.4865956627 -24.0213247013 -2.2446622446
144 2 -3.3202920356 -21.8449725302 -3.3207519868
145 2 4.9587077344 -23.7144507387 5.5505531254
146 2 -4.4865956499 -21.6887174489 -0.8979308449
147 2 -1.7832738549 -24.9986364832 2.3879024064
148 2 -0.6169702405 -22.8222842849 1.3118127053
149 2 -4.266862274 -23.580795326 2.871940475
150 2 -1.6142393763 -23.9361794077 -2.6384864157
151 2 -2.9938867488 -23.9646854789 0.1043503414
152 2 -1.7832738676 -22.6660292528 3.7346338442
153 1 -18.5501151518 -15.9973011955 -4.6297827867
154 2 -20.1720511465 -14.1108045084 -2.2640170256
155 1 -13.345953012 -17.6965434027 1.2532021287
156 1 -11.8704961811 -20.668422125 0.5210250017
157 1 -9.8823475401 -18.6964001785 2.9850048646
158 1 -10.0848289395 -18.4410188322 -0.3971396805
159 1 -9.3696558109 -21.3903525554 1.7714451868
160 1 -6.6212234676 -19.440875608 1.3346630554
161 1 -19.3103988541 -15.9747561965 -1.7290207924
162 1 -16.0492747816 -16.7192316259 -3.3793626016
163 1 -15.8467933822 -16.9746129722 0.0027819436
164 1 -12.5856693097 -17.7190884017 -1.6475598656
165 1 -15.334101653 -19.6685653492 -1.2107777343
166 2 -9.7358683635 -17.6110181704 1.3514161894
167 2 -9.8425402362 -20.3560216198 -0.0200685456
168 2 -10.9464812574 -18.9096743694 -2.2788672722
169 2 -12.1127848845 -18.7534193373 0.1439538667
170 2 -10.9464812701 -16.577067139 -0.9321358344
171 2 -11.008843876 -20.1997665606 2.4027526345
172 2 -17.6884628594 -17.8612528835 -4.0947865535
173 2 -16.5221592323 -15.6849007124 -5.1708762957
174 2 -8.2431594751 -19.8869861733 2.3536974169
175 2 -9.4094630894 -19.7307310921 4.7765185588
176 2 -8.2431594623 -17.5543789209 3.7004288165
177 2 -17.6884628466 -15.5286456311 -2.7480551538
178 2 -14.9851410515 -18.8385646654 0.5377780975
179 2 -13.8188374372 -16.6622124671 -0.5383116036
180 2 -17.4687294707 -17.4207235083 1.0218161661
181 2 -14.816106573 -17.7761075899 -4.4886107246
182 2 -16.1957539455 -17.8046136611 -1.7457739675
183 2 -14.9851410643 -16.5059574351 1.8845095353
184 1 -1.4170613278 -21.1401178152 7.2176479708
185 1 0.058395503 -24.1119965375 6.4854708438
186 1 2.0465441441 -22.139974591 8.9494507067
187 1 1.8440627447 -21.8845932447 5.5673061616
188 1 5.3076682166 -22.8844500205 7.2991088975
189 1 -5.9060503391 -22.3902093312 3.5032479227
190 1 -7.3815071699 -19.418330609 4.2354250497
191 1 -4.1203830974 -20.1628060384 2.5850832405
192 1 -3.917901698 -20.4181873847 5.9672277857
193 1 -0.6567776255 -21.1626628142 4.3168859765
194 1 -3.4052099689 -23.1121397617 4.7536681078
195 2 2.1930233207 -21.0545925829 7.3158620315
196 2 2.086351448 -23.7995960323 5.9443772965
197 2 0.9824104268 -22.3532487819 3.6855785699
198 2 -0.1838932003 -22.1969937498 6.1083997088
199 2 0.982410414 -20.0206415515 5.0323100077
200 2 0.9200478082 -23.6433409731 8.3671984766
201 2 -5.7595711752 -21.304827296 1.8696592886
202 2 -4.5932675481 -19.1284751249 0.7935695464
203 2 3.6857322091 -23.3305605858 8.318143259
204 2 2.5194285948 -23.1743055046 10.7409644009
205 2 3.6857322219 -20.9979533334 9.6648746586
206 2 -5.7595711624 -18.9722200436 3.2163906883
207 2 -3.0562493674 -22.2821390779 6.5022239395
208 2 -1.889945753 -20.1057868796 5.4261342385
209 2 -5.5398377865 -20.8642979208 6.9862620082
210 2 -2.8872148888 -21.2196820024 1.4758351175
211 2 -4.2668622613 -21.2481880736 4.2186718746
212 2 -3.0562493801 -19.9495318476 7.8489553774
213 1 4.5473845143 -22.8619050215 10.1998708918
214 2 7.3356241361 -22.5720495374 6.7580153885
215 2 6.1693205217 -22.4157944561 9.1808365303
216 1 -19.8230906643 -13.2808037902 -0.5154612535
217 2 -22.9377355602 -11.4509463527 -0.4987081195
218 2 -21.4450266717 -13.7269143555 0.503573108
219 2 -21.445026659 -11.3943071031 1.8503045076
220 1 -14.6189285245 -14.9800459974 5.3675236619
221 1 -13.1434716936 -17.9519247197 4.6353465349
222 1 -11.1553230526 -15.9799027732 7.0993263978
223 1 -11.357804452 -15.7245214269 3.7171818527
224 1 -10.6426313234 -18.6738551502 5.88576672
225 1 -7.8941989801 -16.7243782027 5.4489845886
226 1 -19.1079175357 -16.2301375134 1.6531236138
227 1 -20.5833743666 -13.2582587912 2.3853007408
228 1 -17.3222502941 -14.0027342207 0.7349589316
229 1 -17.1197688947 -14.258115567 4.1171034768
230 1 -13.8586448222 -15.0025909964 2.4667616676
231 1 -16.6070771655 -16.9520679439 2.9035437989
232 2 -11.008843876 -14.8945207652 5.4657377226
233 2 -11.1155157487 -17.6395242145 4.0942529876
234 2 -12.2194567699 -16.1931769641 1.835454261
235 2 -13.385760397 -16.0369219321 4.2582753999
236 2 -12.2194567826 -13.8605697338 3.1821856988
237 2 -12.2818193885 -17.4832691553 6.5170741677
238 2 -18.9614383719 -15.1447554782 0.0195349797
239 2 -17.7951347448 -12.9684033071 -1.0565547625
240 2 -9.5161349876 -17.170488768 6.4680189501
241 2 -10.6824386019 -17.0142336868 8.890840092
242 2 -9.5161349748 -14.8378815156 7.8147503497
243 2 -18.9614383591 -12.8121482258 1.3662663793
244 2 -16.258116564 -16.1220672601 4.6520996306
245 2 -15.0918129497 -13.9457150618 3.5760099295
246 2 -18.7417049832 -14.704226103 5.1361376993
247 2 -16.0890820855 -15.0596101846 -0.3742891914
248 2 -17.468729458 -15.0881162559 2.3685475657
249 2 -16.2581165768 -13.7894600298 5.9988310685
250 1 -2.6900368403 -18.4236204099 11.331969504
251 1 -1.2145800095 -21.3954991322 10.5997923769
252 1 0.7735686316 -19.4234771857 13.0637722399
253 1 0.5710872322 -19.1680958394 9.6816276948
254 1 1.2862603607 -22.1174295627 11.850212562
255 1 4.0346927041 -20.1679526152 11.4134304307
256 1 -7.1790258516 -19.6737119259 7.6175694559
257 1 -8.6544826824 -16.7018332037 8.3497465829
258 1 -5.3933586099 -17.4463086332 6.6994047737
259 1 -5.1908772105 -17.7016899795 10.0815493189
260 1 -1.929753138 -18.4461654089 8.4312075097
261 1 -4.6781854814 -20.3956423564 8.867989641
262 2 0.9200478082 -18.3380951777 11.4301835647
263 2 0.8133759355 -21.083098627 10.0586988297
264 2 -0.2905650857 -19.6367513766 7.7999001031
265 2 -1.4568687128 -19.4804963446 10.222721242
266 2 -0.2905650985 -17.3041441463 9.1466315409
267 2 -0.3529277043 -20.9268435678 12.4815200098
268 2 -7.0325466877 -18.5883298907 5.9839808218
269 2 -5.8662430606 -16.4119777196 4.9078910796
270 2 2.4127566966 -20.6140631805 12.4324647922
271 2 1.2464530823 -20.4578080993 14.8552859341
272 2 2.4127567094 -18.2814559281 13.7791961918
273 2 -7.0325466749 -16.2557226383 7.3307122214
274 2 -4.3292248799 -19.5656416726 10.6165454727
275 2 -3.1629212655 -17.3892894743 9.5404557716
276 2 -6.812813299 -18.1478005155 11.1005835414
277 2 -4.1601904013 -18.5031845971 5.5901566507
278 2 -5.5398377738 -18.5316906684 8.3329934078
279 2 -4.3292248926 -17.2330344423 11.9632769105
280 1 3.2744090018 -20.1454076162 14.314192425
281 1 6.5355330743 -20.8898830457 12.6638506158
282 2 4.8963449965 -22.0319043032 11.9484266639
283 2 6.0626486236 -19.8555521321 10.8723369217
284 2 4.8963450092 -19.6992970508 13.2951580635
285 1 -21.0960661768 -10.5643063849 3.5988602797
286 2 -22.7180021842 -11.0104169502 4.6178946412
287 2 -22.7180021715 -8.6778096979 5.9646260408
288 1 -15.891904037 -12.2635485921 9.4818451951
289 1 -14.4164472061 -15.2354273144 8.749668068
290 1 -12.4282985651 -13.2634053679 11.213647931
291 1 -12.6307799645 -13.0080240216 7.8315033859
292 1 -11.9156068359 -15.9573577449 10.0000882531
293 1 -9.1671744926 -14.0078807974 9.5633061218
294 1 -20.3808930482 -13.5136401082 5.767445147
295 1 -21.8563498791 -10.5417613859 6.499622274
296 1 -18.5952258066 -11.2862368154 4.8492804648
297 1 -18.3927444072 -11.5416181617 8.23142501
298 1 -15.1316203347 -12.2860935912 6.5810832008
299 1 -17.880052678 -14.2355705386 7.0178653321
300 2 -12.2818193885 -12.1780233599 9.5800592558
301 2 -12.3884912612 -14.9230268093 8.2085745208
302 2 -13.4924322824 -13.4766795588 5.9497757942
303 2 -14.6587359095 -13.3204245268 8.3725969331
304 2 -13.4924322951 -11.1440723285 7.296507232
305 2 -13.554794901 -14.7667717501 10.6313957009
306 2 -20.2344138844 -12.4282580729 4.1338565129
307 2 -19.0681102573 -10.2519059018 3.0577667707
308 2 -10.7891105001 -14.4539913627 10.5823404833
309 2 -11.9554141144 -14.2977362815 13.0051616251
310 2 -10.7891104873 -12.1213841104 11.9290718829
311 2 -20.2344138716 -10.0956508206 5.4805879125
312 2 -17.5310920765 -13.4055698548 8.7664211638
313 2 -16.3647884622 -11.2292176565 7.6903314627
314 2 -20.0146804957 -11.9877286977 9.2504592325
315 2 -17.362057598 -12.3431127793 3.7400323418
316 2 -18.7417049705 -12.3716188506 6.4828690989
317 2 -17.5310920893 -11.0729626245 10.1131526016
318 1 -3.9630123528 -15.7071230046 15.4462910372
319 1 -2.487555522 -18.6790017269 14.7141139101
320 1 -0.4994068809 -16.7069797804 17.1780937731
321 1 -0.7018882803 -16.4515984341 13.795949228
322 1 0.0132848482 -19.4009321574 15.9645340952
323 1 2.7617171916 -17.4514552099 15.5277519639
324 1 -8.4520013641 -16.9572145207 11.7318909891
325 1 -9.9274581949 -13.9853357984 12.4640681161
326 1 -6.6663341224 -14.7298112279 10.8137263069
327 1 -6.463852723 -14.9851925742 14.1958708521
328 1 -3.2027286505 -15.7296680037 12.5455290429
329 1 -5.9511609939 -17.6791449511 12.9823111742
330 2 -0.3529277043 -15.6215977724 15.5445050979
331 2 -0.459599577 -18.3666012218 14.1730203629
332 2 -1.5635405982 -16.9202539713 11.9142216363
333 2 -2.7298442253 -16.7639989393 14.3370427752
334 2 -1.563540611 -14.587646741 13.2609530741
335 2 -1.6259032168 -18.2103461626 16.595841543
336 2 -8.3055222002 -15.8718324854 10.098302355
337 2 -7.1392185731 -13.6954803143 9.0222126128
338 2 1.1397811841 -17.8975657752 16.5467863254
339 2 1.1397811969 -15.5649585229 17.893517725
340 2 -8.3055221874 -13.5392252331 11.4450337546
341 2 -5.6022003924 -16.8491442673 14.7308670059
342 2 -4.435896778 -14.672792069 13.6547773048
343 2 -8.0857888115 -15.4313031102 15.2149050746
344 2 -5.4331659138 -15.7866871918 9.7044781839
345 2 -6.8128132863 -15.8151932631 12.447314941
346 2 -5.6022004051 -14.516537037 16.0775984437
347 1 2.0014334893 -17.4289102109 18.4285139582
348 1 5.2625575618 -18.1733856404 16.778172149
349 2 3.623369484 -19.3154068979 16.0627481971
350 2 4.7896731111 -17.1390547268 14.9866584549
351 2 3.6233694967 -16.9827996456 17.4094795967
352 2 6.4957257704 -19.2302616043 15.668924026
353 1 -22.3690416893 -7.8478089796 7.7131818129
354 1 -17.1648795495 -9.5470511869 13.5961667283
355 1 -15.6894227186 -12.5189299091 12.8639896012
356 1 -13.7012740776 -10.5469079626 15.3279694642
357 1 -13.903755477 -10.2915266163 11.9458249191
358 1 -13.1885823484 -13.2408603396 14.1144097863
359 1 -10.4401500051 -11.2913833921 13.677627655
360 1 -19.8682013191 -8.5697394101 8.963601998
361 1 -19.6657199197 -8.8251207564 12.3457465432
362 1 -16.4045958472 -9.5695961859 10.695404734
363 1 -19.1530281905 -11.5190731333 11.1321868653
364 2 -13.554794901 -9.4615259546 13.694380789
365 2 -13.6614667737 -12.206529404 12.322896054
366 2 -14.7654077949 -10.7601821535 10.0640973274
367 2 -15.931711422 -10.6039271215 12.4869184663
368 2 -14.7654078076 -8.4275749232 11.4108287652
369 2 -14.8277704135 -12.0502743448 14.7457172341
370 2 -21.5073893969 -9.7117606677 8.2481780461
371 2 -20.3410857698 -7.5354084965 7.1720883039
372 2 -12.0620860126 -11.7374939575 14.6966620165
373 2 -13.2283896269 -11.5812388762 17.1194831583
374 2 -12.0620859998 -9.4048867051 16.0433934161
375 2 -21.5073893841 -7.3791534153 9.5949094457
376 2 -18.804067589 -10.6890724496 12.880742697
377 2 -17.6377639747 -8.5127202513 11.8046529959
378 2 -18.6350331105 -9.626615374 7.854353875
379 2 -20.014680483 -9.6551214453 10.5971906321
380 2 -18.8040676018 -8.3564652192 14.2274741348
381 1 -5.2359878653 -12.9906255994 19.5606125704
382 1 -3.7605310345 -15.9625043216 18.8284354433
383 1 -1.7723823934 -13.9904823751 21.2924153063
384 1 -1.9748637928 -13.7351010288 17.9102707612
385 1 1.4887416791 -14.7349578046 19.6420734971
386 1 -9.7249768766 -14.2407171154 15.8462125223
387 1 -11.2004337074 -11.2688383931 16.5783896493
388 1 -7.9393096349 -12.0133138226 14.9280478401
389 1 -7.7368282355 -12.2686951689 18.3101923853
390 1 -4.475704163 -13.0131705984 16.6598505761
391 1 -7.2241365064 -14.9626475458 17.0966327074
392 2 -1.6259032168 -12.9051003671 19.6588266311
393 2 -1.7325750895 -15.6501038165 18.2873418961
394 2 -2.8365161107 -14.203756566 16.0285431695
395 2 -4.0028197378 -14.047501534 18.4513643084
396 2 -2.8365161235 -11.8711493357 17.3752746073
397 2 -9.5784977127 -13.1553350802 14.2126238882
398 2 -8.4121940856 -10.978982909 13.136534146
399 2 -0.1331943284 -15.18106837 20.6611078586
400 2 -0.1331943156 -12.8484611176 22.0078392582
401 2 -9.5784976999 -10.8227278278 15.5593552878
402 2 -6.8751759049 -14.1326468621 18.8451885391
403 2 -5.7088722905 -11.9562946638 17.769098838
404 2 -9.358764324 -12.7148057049 19.3292266078
405 2 -6.7061414263 -13.0701897865 13.8187997171
406 2 -8.0857887988 -13.0986958578 16.5616364742
407 2 -6.8751759176 -11.8000396317 20.1919199769
408 2 3.5166975986 -14.4225573215 19.1009799881
409 1 -16.9623982311 -9.8024325038 16.9783111344
410 1 -14.9742495901 -7.8304105574 19.4422909974
411 1 -15.1767309895 -7.5750292111 16.0601464522
412 1 -14.4615578609 -10.5243629343 18.2287313195
413 1 -11.7131255176 -8.5748859869 17.7919491882
414 1 -21.1411768316 -5.8532420048 13.0779235312
415 1 -17.6775713597 -6.8530987806 14.8097262671
416 2 -14.8277704135 -6.7450285493 17.8087023222
417 2 -14.9344422862 -9.4900319987 16.4372175872
418 2 -16.0383833074 -8.0436847483 14.1784188606
419 2 -17.2046869345 -7.8874297162 16.6012399995
420 2 -16.0383833201 -5.7110775179 15.5251502984
421 2 -21.6140612823 -4.8189110913 11.2864098371
422 2 -13.3350615251 -9.0209965522 18.8109835497
423 2 -13.3350615123 -6.6883892998 20.1577149493
424 2 -18.9107394872 -5.796222846 15.9189745291
425 2 -19.908008623 -6.9101179688 11.9686754082
426 1 -3.2478393053 -11.0186036236 22.0245922943
427 1 -10.9979523891 -11.5242197101 19.9605340555
428 1 -12.4734092199 -8.5523409878 20.6927111825
429 1 -9.2122851474 -9.2968164173 19.0423693733
430 1 -9.009803748 -9.5521977636 22.4245139184
431 1 -5.7486796755 -10.2966731931 20.7741721092
432 1 -8.4971120189 -12.2461501406 21.2109542406
433 2 -4.1094916232 -11.4872591608 20.1428647027
434 2 -5.2757952503 -11.3310041287 22.5656858416
435 2 -4.109491636 -9.1546519304 21.4895961405
436 2 -10.8514732252 -10.4388376749 18.3269454214
437 2 -9.6851695981 -8.2624855038 17.2508556792
438 2 -10.8514732124 -8.1062304225 19.673676821
439 2 -6.981847803 -9.2397972585 21.8834203712
440 2 -7.9791169388 -10.3536923813 17.9331212503
441 2 -9.3587643113 -10.3821984525 20.6759580074
442 2 -17.3113588199 -5.327187343 18.2927403938
443 2 -10.9581451106 -5.5459880985 21.3651772124
444 2 -9.2520924513 -7.637194976 22.0474427835
445 1 -8.254050962 -20.9246799488 -10.7943674752
446 1 -4.7904454901 -21.9245367246 -9.0625647393
447 1 -4.9929268895 -21.6691553783 -12.4447092844
448 1 -1.5293214176 -22.6690121541 -10.7129065485
449 1 -10.7548913322 -20.2027495184 -12.0447876603
450 2 -4.6439663135 -20.8391547166 -10.6961534145
451 2 -5.8545792201 -19.8052036852 -12.9797054383
452 2 -3.1512574251 -23.1151227194 -9.693872187
453 2 -4.3175610394 -22.9588676382 -7.2710510451
454 2 -3.1512574123 -20.782515467 -8.3471407874
455 2 -8.7269353872 -19.8903490132 -12.5858812075
456 2 -9.8932390143 -19.7340939812 -10.1630600686
457 1 3.6748407222 -24.3682543613 -4.8299216331
458 1 -2.2896051199 -22.6464671551 -7.8121445542
459 1 0.9715189526 -23.3909425846 -9.4624863634
460 1 1.174000352 -23.6463239309 -6.0803418182
461 1 4.4351244245 -24.3907993603 -7.7306836274
462 2 7.2849253707 -24.2827291291 -4.7317075724
463 2 6.074312464 -23.2487780977 -7.0152595962
464 2 0.4986345019 -22.356611671 -11.2540000575
465 2 8.7776342719 -24.2260898795 -2.3826949453
466 2 -0.6676691124 -22.2003565897 -8.8311789156
467 2 3.201956297 -23.3339234257 -6.6214353654
468 2 -0.4479357365 -24.0924344669 -5.0613075957
469 2 0.8250397887 -24.4763246198 -7.8288977293
470 2 2.0356526699 -23.1776683937 -4.1986142265
471 1 -14.7311886143 -16.5089403363 -12.5630308574
472 2 -16.353124609 -14.6224436493 -10.1972650963
473 1 -9.5270264745 -18.2081825435 -6.680045942
474 1 -8.0515696436 -21.1800612658 -7.412223069
475 1 -6.0634210026 -19.2080393193 -4.9482432061
476 1 -6.265902402 -18.952657973 -8.3303877512
477 1 -5.5507292734 -21.9019916963 -6.1618028839
478 1 -2.8022969301 -19.9525147488 -6.5985850153
479 1 -15.4914723166 -16.4863953373 -9.6622688631
480 1 -12.2303482441 -17.2308707668 -11.3126106723
481 1 -12.0278668447 -17.4862521131 -7.9304661271
482 1 -8.7667427722 -18.2307275426 -9.5808079363
483 1 -11.5151751155 -20.18020449 -9.144025805
484 2 -5.916941826 -18.1226573113 -6.5818318813
485 2 -6.0236136987 -20.8676607607 -7.9533166163
486 2 -7.1275547199 -19.4213135102 -10.2121153429
487 2 -8.293858347 -19.2650584782 -7.789294204
488 2 -7.1275547326 -17.0887062799 -8.8653839051
489 2 -7.1899173385 -20.7114057015 -5.5304954362
490 2 -12.7032326948 -16.1965398532 -13.1041243664
491 2 -4.4242329376 -20.3986253141 -5.5795506538
492 2 -5.5905365519 -20.2423702329 -3.1567295119
493 2 -4.4242329248 -18.0660180618 -4.2328192542
494 2 -13.8695363091 -16.040284772 -10.6813032245
495 2 -11.166214514 -19.3502038062 -7.3954699732
496 2 -9.9999108997 -17.1738516079 -8.4715596743
497 2 -13.6498029332 -17.9323626491 -6.9114319046
498 2 -10.9971800355 -18.2877467307 -12.4218587953
499 2 -12.376827408 -18.316252802 -9.6790220382
500 2 -11.1662145268 -17.0175965759 -6.0487385354
501 1 2.4018652097 -21.651756956 -0.7156000999
502 1 3.8773220405 -24.6236356783 -1.4477772269
503 1 5.8654706816 -22.6516137318 1.016202636
504 1 5.6629892822 -22.3962323855 -2.3659419091
505 1 9.1265947541 -23.3960891613 -0.6341391732
506 1 -2.0871238016 -22.9018484721 -4.430000148
507 1 -3.5625806324 -19.9299697498 -3.697823021
508 1 -0.3014565599 -20.6744451793 -5.3481648302
509 1 -0.0989751605 -20.9298265256 -1.966020285
510 1 3.162148912 -21.6743019551 -3.6163620942
511 1 0.4137165686 -23.6237789025 -3.1795799629
512 2 6.0119498582 -21.5662317238 -0.6173860392
513 2 5.9052779855 -24.3112351732 -1.9888707742
514 2 4.8013369643 -22.8648879227 -4.2476695008
515 2 3.6350333372 -22.7086328907 -1.8248483619
516 2 4.8013369515 -20.5322806924 -2.900938063
517 2 4.7389743457 -24.154980114 0.4339504059
518 2 -1.9406446377 -21.8164664368 -6.0635887821
519 2 -0.7743410106 -19.6401142657 -7.1396785243
520 2 7.5046587466 -23.8421997266 0.3848951883
521 2 6.3383551323 -23.6859446454 2.8077163302
522 2 7.5046587594 -21.5095924743 1.7316265879
523 2 -1.9406446249 -19.4838591845 -4.7168573824
524 2 0.7626771701 -22.7937782187 -1.4310241311
525 2 1.9289807845 -20.6174260204 -2.5071138322
526 2 -1.720911249 -21.3759370616 -0.9469860625
527 2 0.9317116487 -21.7313211432 -6.4574129532
528 2 -0.4479357238 -21.7598272145 -3.7145761961
529 2 0.7626771574 -20.4611709884 -0.0842926933
530 1 8.3663110518 -23.3735441623 2.2666228211
531 2 11.1545506736 -23.0836886782 -1.1752326822
532 2 9.9882470592 -22.927433597 1.2475884597
533 1 -19.2652881993 -13.0479675015 -6.798367515
534 1 -19.4677695987 -12.7925861552 -10.1805120601
535 1 -18.7525964701 -15.7419198785 -8.0119271928
536 1 -16.0041641268 -13.792442931 -8.4487093242
537 2 -19.1188090227 -11.9625854935 -8.4319561902
538 2 -20.3294219293 -10.9286344621 -10.715508214
539 2 -17.6261001342 -14.2385534964 -7.4296749627
540 2 -18.7924037486 -14.0822984151 -5.0068538208
541 2 -17.6261001215 -11.905946244 -6.0829435631
542 1 -10.800001987 -15.4916851383 -2.5657244088
543 1 -9.3245451561 -18.4635638605 -3.2979015358
544 1 -7.3363965151 -16.491541914 -0.8339216729
545 1 -7.5388779145 -16.2361605677 -4.216066218
546 1 -6.8237047859 -19.185494291 -2.0474813507
547 1 -4.0752724426 -17.2360173435 -2.4842634821
548 1 -15.2889909982 -16.7417766543 -6.2801244569
549 1 -16.7644478291 -13.769897932 -5.5479473299
550 1 -13.5033237566 -14.5143733615 -7.1982891391
551 1 -13.3008423572 -14.7697547078 -3.8161445939
552 1 -10.0397182847 -15.5142301373 -5.4664864031
553 1 -12.788150628 -17.4637070847 -5.0297042718
554 2 -7.1899173385 -15.406159906 -2.4675103481
555 2 -7.2965892112 -18.1511633554 -3.8389950831
556 2 -8.4005302324 -16.7048161049 -6.0977938097
557 2 -9.5668338595 -16.5485610729 -3.6749726708
558 2 -8.4005302451 -14.3722088746 -4.7510623719
559 2 -8.462892851 -17.9949082962 -1.416173903
560 2 -15.1425118344 -15.6563946191 -7.913713091
561 2 -13.9762082073 -13.4800424479 -8.9898028332
562 2 -5.6972084501 -17.6821279089 -1.4652291206
563 2 -6.8635120644 -17.5258728276 0.9575920213
564 2 -5.6972084373 -15.3495206565 -0.118497721
565 2 -15.1425118216 -13.3237873667 -6.5669816913
566 2 -12.4391900265 -16.6337064009 -3.28114844
567 2 -11.2728864122 -14.4573542026 -4.3572381411
568 2 -14.9227784457 -15.2158652438 -2.7971103714
569 2 -12.270155548 -15.5712493254 -8.3075372621
570 2 -13.6498029205 -15.5997553967 -5.564700505
571 2 -12.4391900393 -14.3010991706 -1.9344170022
572 1 1.1288896972 -18.9352595508 3.3987214333
573 1 2.604346528 -21.907138273 2.6665443063
574 1 4.5924951691 -19.9351163265 5.1305241692
575 1 4.3900137697 -19.6797349802 1.7483796241
576 1 5.1051868982 -22.6290687035 3.9169644914
577 1 7.8536192416 -20.679591756 3.48018236
578 1 -3.3600993141 -20.1853510668 -0.3156786148
579 1 -4.8355561449 -17.2134723445 0.4164985122
580 1 -1.5744320724 -17.957947774 -1.233843297
581 1 -1.371950673 -18.2133291203 2.1483012482
582 1 1.8891733995 -18.9578045498 0.497959439
583 1 -0.8592589439 -20.9072814972 0.9347415703
584 2 4.7389743457 -18.8497343185 3.496935494
585 2 4.632302473 -21.5947377679 2.125450759
586 2 3.5283614518 -20.1483905174 -0.1333479676
587 2 2.3620578247 -19.9921354854 2.2894731713
588 2 3.528361439 -17.8157832871 1.2133834702
589 2 3.4659988332 -21.4384827087 4.5482719391
590 2 -3.2136201502 -19.0999690316 -1.9492672489
591 2 -2.0473165231 -16.9236168604 -3.0253569911
592 2 6.2316832341 -21.1257023214 4.4992167215
593 2 5.0653796198 -20.9694472401 6.9220378634
594 2 6.2316832469 -18.793095069 5.8459481211
595 2 -3.2136201374 -16.7673617792 -0.6025358492
596 2 -0.5102983424 -20.0772808134 2.683297402
597 2 0.656005272 -17.9009286151 1.607207701
598 2 -2.9938867615 -18.6594396563 3.1673354707
599 2 -0.3412638638 -19.0148237379 -2.34309142
600 2 -1.7209112363 -19.0433298092 0.3997453371
601 2 -0.5102983551 -17.7446735831 4.0300288399
602 1 8.5687923701 -23.6289254793 5.6487672273
603 1 7.0933355393 -20.657046757 6.3809443543
604 1 10.3544596118 -21.4015221865 4.7306025451
605 1 10.5569410112 -21.6569035328 8.1127470903
606 2 8.715271534 -22.5435434441 4.0151785932
607 2 9.8815751611 -20.3671912729 2.939088851
608 2 8.7152715467 -20.2109361917 5.3619099928
609 2 8.9350049227 -22.1030140688 9.1317813128
610 2 11.5876278204 -22.4583981504 3.6213544221
611 2 10.2079804479 -22.4869042217 6.3641911792
612 1 -20.5382637118 -10.3314700963 -2.6840459818
613 1 -20.7407451112 -10.07608875 -6.0661905269
614 1 -20.0255719826 -13.0254224732 -3.8976056596
615 1 -17.2771396393 -11.0759455258 -4.334387791
616 2 -20.3917845352 -9.2460880882 -4.317634657
617 2 -20.4984564079 -11.9910915376 -5.689119392