# LAMMPS data file written by Ovito 3.10.6

6390 atoms
2 atom types

-20.0 110.0 xlo xhi
-20.0 20.0 ylo yhi
-20.0 20.0 zlo zhi

Masses

1 55.845  # Fe3+
2 15.9994  # O2-

Atoms  # atomic

1 1 -10.800001987 -15.4916851383 -2.5657244088
2 1 -7.3363965151 -16.491541914 -0.8339216729
3 1 -7.5388779145 -16.2361605677 -4.216066218
4 1 -4.0752724426 -17.2360173435 -2.4842634821
5 1 -10.0397182847 -15.5142301373 -5.4664864031
6 2 -7.1899173385 -15.406159906 -2.4675103481
7 2 -7.2965892112 -18.1511633554 -3.8389950831
8 2 -8.4005302324 -16.7048161049 -6.0977938097
9 2 -9.5668338595 -16.5485610729 -3.6749726708
10 2 -8.4005302451 -14.3722088746 -4.7510623719
11 2 -8.462892851 -17.9949082962 -1.416173903
12 2 -5.6972084501 -17.6821279089 -1.4652291206
13 2 -6.8635120644 -17.5258728276 0.9575920213
14 2 -5.6972084373 -15.3495206565 -0.118497721
15 2 -11.2728864122 -14.4573542026 -4.3572381411
16 2 -12.4391900393 -14.3010991706 -1.9344170022
17 1 1.1288896972 -18.9352595508 3.3987214333
18 1 -4.8355561449 -17.2134723445 0.4164985122
19 1 -1.5744320724 -17.957947774 -1.233843297
20 1 -1.371950673 -18.2133291203 2.1483012482
21 1 1.8891733995 -18.9578045498 0.497959439
22 2 4.7389743457 -18.8497343185 3.496935494
23 2 3.528361439 -17.8157832871 1.2133834702
24 2 -3.2136201502 -19.0999690316 -1.9492672489
25 2 -2.0473165231 -16.9236168604 -3.0253569911
26 2 -3.2136201374 -16.7673617792 -0.6025358492
27 2 0.656005272 -17.9009286151 1.607207701
28 2 -2.9938867615 -18.6594396563 3.1673354707
29 2 -0.3412638638 -19.0148237379 -2.34309142
30 2 -1.7209112363 -19.0433298092 0.3997453371
31 2 -0.5102983551 -17.7446735831 4.0300288399
32 1 -12.0729774995 -12.775187733 1.5485971244
33 1 -10.5975206686 -15.7470664552 0.8164199974
34 1 -8.6093720276 -13.7750445088 3.2803998603
35 1 -8.811853427 -13.5196631625 -0.1017446848
36 1 -8.0966802984 -16.4689968857 2.0668401825
37 1 -5.3482479551 -14.5195199383 1.6300580511
38 1 -14.7762992691 -11.7978759562 -3.0839676059
39 1 -14.5738178697 -12.0532573025 0.2981769393
40 1 -11.3126937972 -12.797732732 -1.3521648699
41 2 -8.462892851 -12.6896625007 1.6468111851
42 2 -8.5695647237 -15.4346659501 0.2753264501
43 2 -9.6735057449 -13.9883186997 -1.9834722765
44 2 -10.839809372 -13.8320636676 0.4393488624
45 2 -9.6735057576 -11.6557114693 -0.6367408387
46 2 -9.7358683635 -15.2784108909 2.6981476302
47 2 -15.2491837198 -10.7635450427 -4.8754813
48 2 -6.9701839626 -14.9656305036 2.6490924126
49 2 -8.1364875769 -14.8093754223 5.0719135545
50 2 -6.9701839498 -12.6330232512 3.9958238122
51 2 -16.4154873341 -10.6072899614 -2.4526601582
52 2 -13.712165539 -13.9172089957 0.8331730931
53 2 -12.5458619247 -11.7408567974 -0.242916608
54 2 -13.5431310605 -12.8547519202 -4.1932157289
55 2 -14.922778433 -12.8832579914 -1.4503789718
56 2 -13.7121655518 -11.5846017653 2.179904531
57 1 -0.1440858153 -16.2187621455 7.5130429665
58 1 3.3195196566 -17.2186189213 9.2448457024
59 1 3.1170382572 -16.963237575 5.8627011573
60 1 -4.6330748266 -17.4688536615 3.7986429184
61 1 -6.1085316574 -14.4969749392 4.5308200454
62 1 -2.8474075849 -15.2414503687 2.8804782362
63 1 -2.6449261855 -15.496831715 6.2626227814
64 1 0.616197887 -16.2413071445 4.6122809722
65 1 -2.1322344564 -18.190784092 5.0490631035
66 2 3.4659988332 -16.1332369132 7.6112570272
67 2 2.2553859393 -17.4318931122 3.9809735656
68 2 1.0890823122 -17.2756380801 6.4037947045
69 2 2.2553859265 -15.0992858818 5.3277050034
70 2 -4.4865956627 -16.3834716263 2.1650542843
71 2 -3.3202920356 -14.2071194552 1.0889645421
72 2 4.9587077344 -16.0765976637 9.9602696543
73 2 -4.4865956499 -14.0508643739 3.5117856839
74 2 -1.7832738549 -17.3607834082 6.7976189352
75 2 -0.6169702405 -15.1844312099 5.7215292341
76 2 -4.266862274 -15.942942251 7.2816570039
77 2 -1.6142393763 -16.2983263327 1.7712301132
78 2 -2.9938867488 -16.3268324039 4.5140668703
79 2 -1.7832738676 -15.0281761778 8.144350373
80 1 -13.345953012 -10.0586903277 5.6629186576
81 1 -11.8704961811 -13.03056905 4.9307415305
82 1 -9.8823475401 -11.0585471035 7.3947213935
83 1 -10.0848289395 -10.8031657572 4.0125768484
84 1 -9.3696558109 -13.7524994804 6.1811617156
85 1 -6.6212234676 -11.803022533 5.7443795843
86 1 -16.0492747816 -9.0813785509 1.0303539273
87 1 -15.8467933822 -9.3367598972 4.4124984725
88 1 -12.5856693097 -10.0812353267 2.7621566633
89 1 -15.334101653 -12.0307122742 3.1989387946
90 2 -9.7358683635 -9.9731650954 5.7611327183
91 2 -9.8425402362 -12.7181685448 4.3896479833
92 2 -10.9464812574 -11.2718212944 2.1308492567
93 2 -12.1127848845 -11.1155662623 4.5536703956
94 2 -10.9464812701 -8.939214064 3.4775806945
95 2 -11.008843876 -12.5619134856 6.8124691634
96 2 -16.5221592323 -8.0470476374 -0.7611597668
97 2 -8.2431594751 -12.2491330983 6.7634139458
98 2 -9.4094630894 -12.0928780171 9.1862350876
99 2 -8.2431594623 -9.9165258459 8.1101453454
100 2 -17.6884628466 -7.8907925561 1.661661375
101 2 -14.9851410515 -11.2007115904 4.9474946263
102 2 -13.8188374372 -9.0243593921 3.8714049252
103 2 -14.816106573 -10.1382545149 -0.0788941957
104 2 -16.1957539455 -10.1667605861 2.6639425614
105 2 -14.9851410643 -8.8681043601 6.2942260641
106 1 -1.4170613278 -13.5022647402 11.6273644997
107 1 0.058395503 -16.4741434625 10.8951873726
108 1 2.0465441441 -14.502121516 13.3591672356
109 1 1.8440627447 -14.2467401697 9.9770226905
110 1 5.3076682166 -15.2465969455 11.7088254264
111 1 -5.9060503391 -14.7523562562 7.9129644516
112 1 -7.3815071699 -11.780477534 8.6451415786
113 1 -4.1203830974 -12.5249529634 6.9947997694
114 1 -3.917901698 -12.7803343097 10.3769443146
115 1 -0.6567776255 -13.5248097392 8.7266025054
116 1 -3.4052099689 -15.4742866867 9.1633846367
117 2 2.1930233207 -13.4167395079 11.7255785604
118 2 2.086351448 -16.1617429573 10.3540938254
119 2 0.9824104268 -14.7153957069 8.0952950988
120 2 -0.1838932003 -14.5591406748 10.5181162377
121 2 0.982410414 -12.3827884765 9.4420265366
122 2 -5.7595711752 -13.666974221 6.2793758175
123 2 -4.5932675481 -11.4906220499 5.2032860753
124 2 3.6857322219 -13.3601002584 14.0745911875
125 2 -5.7595711624 -11.3343669686 7.6261072171
126 2 -3.0562493674 -14.6442860029 10.9119404684
127 2 -1.889945753 -12.4679338046 9.8358507673
128 2 -5.5398377865 -13.2264448458 11.3959785371
129 2 -2.8872148888 -13.5818289274 5.8855516464
130 2 -4.2668622613 -13.6103349986 8.6283884035
131 2 -3.0562493801 -12.3116787726 12.2586719062
132 1 -14.6189285245 -7.3421929224 9.7772401908
133 1 -13.1434716936 -10.3140716447 9.0450630637
134 1 -11.1553230526 -8.3420496982 11.5090429267
135 1 -11.357804452 -8.0866683519 8.1268983816
136 1 -10.6426313234 -11.0360020752 10.2954832488
137 1 -7.8941989801 -9.0865251277 9.8587011175
138 1 -17.3222502941 -6.3648811457 5.1446754605
139 1 -13.8586448222 -7.3647379214 6.8764781965
140 2 -11.008843876 -7.2566676902 9.8754542515
141 2 -11.1155157487 -10.0016711395 8.5039695165
142 2 -12.2194567699 -8.5553238891 6.2451707899
143 2 -13.385760397 -8.3990688571 8.6679919288
144 2 -12.2194567826 -6.2227166588 7.5919022277
145 2 -12.2818193885 -9.8454160803 10.9267906966
146 2 -17.7951347448 -5.3305502321 3.3531617664
147 2 -9.5161349876 -9.532635693 10.877735479
148 2 -10.6824386019 -9.3763806118 13.3005566208
149 2 -9.5161349748 -7.2000284406 12.2244668786
150 2 -15.0918129497 -6.3078619868 7.9857264584
151 2 -16.0890820855 -7.4217571096 4.0354273375
152 1 -2.6900368403 -10.7857673349 15.7416860329
153 1 0.5710872322 -11.5302427644 14.0913442237
154 1 -7.1790258516 -12.0358588509 12.0272859848
155 1 -8.6544826824 -9.0639801287 12.7594631118
156 1 -5.3933586099 -9.8084555582 11.1091213026
157 1 -5.1908772105 -10.0638369045 14.4912658478
158 1 -1.929753138 -10.8083123339 12.8409240386
159 1 -4.6781854814 -12.7577892814 13.2777061699
160 2 0.9200478082 -10.7002421027 15.8399000936
161 2 0.8133759355 -13.445245552 14.4684153586
162 2 -0.2905650857 -11.9988983016 12.209616632
163 2 -1.4568687128 -11.8426432696 14.6324377709
164 2 -0.2905650985 -9.6662910713 13.5563480698
165 2 -7.0325466877 -10.9504768157 10.3936973507
166 2 -5.8662430606 -8.7741246446 9.3176076085
167 2 -7.0325466749 -8.6178695633 11.7404287503
168 2 -4.3292248799 -11.9277885976 15.0262620016
169 2 -3.1629212655 -9.7514363993 13.9501723005
170 2 -6.812813299 -10.5099474405 15.5103000703
171 2 -4.1601904013 -10.8653315221 9.9998731796
172 2 -5.5398377738 -10.8938375934 12.7427099367
173 2 -4.3292248926 -9.5951813673 16.3729934394
174 1 -12.6307799645 -5.3701709466 12.2412199147
175 1 -9.1671744926 -6.3700277224 13.9730226507
176 1 -15.1316203347 -4.6482405162 10.9907997296
177 2 -12.2818193885 -4.5401702849 13.9897757847
178 2 -12.3884912612 -7.2851737343 12.6182910497
179 2 -13.4924322824 -5.8388264838 10.3594923231
180 2 -13.4924322951 -3.5062192535 11.7062237609
181 2 -10.7891105001 -6.8161382877 14.9920570122
182 2 -17.362057598 -4.7052597043 8.1497488707
183 1 -6.6663341224 -7.0919581529 15.2234428358
184 1 -3.2027286505 -8.0918149287 16.9552455717
185 2 -1.5635405982 -9.2824008963 16.3239381652
186 2 -1.563540611 -6.949793666 17.670669603
187 2 -8.3055222002 -8.2339794104 14.5080188839
188 2 -7.1392185731 -6.0576272393 13.4319291417
189 2 -8.3055221874 -5.9013721581 15.8547502835
190 2 -4.435896778 -7.034938994 18.0644938337
191 2 -5.4331659138 -8.1488341168 14.1141947128
192 2 -8.4121940856 -3.341129834 17.5462506749
193 1 -8.254050962 -13.2868268738 -6.3846509463
194 1 -6.7785941311 -16.2587055961 -7.1168280733
195 1 -4.7904454901 -14.2866836496 -4.6528482104
196 1 -4.9929268895 -14.0313023033 -8.0349927555
197 1 -4.2777537609 -16.9806360265 -5.8664078882
198 1 -1.5293214176 -15.0311590791 -6.3031900196
199 1 -10.9573727316 -12.3095150971 -11.0172156766
200 1 -10.7548913322 -12.5648964434 -7.6350711314
201 1 -7.4937672597 -13.3093718728 -9.2854129406
202 2 -4.6439663135 -13.2013016416 -6.2864368856
203 2 -4.7506381862 -15.9463050909 -7.6579216206
204 2 -5.8545792074 -14.4999578405 -9.9167203472
205 2 -7.0208828345 -14.3437028085 -7.4938992083
206 2 -5.8545792201 -12.1673506102 -8.5699889094
207 2 -5.916941826 -15.7900500317 -5.2351004405
208 2 -3.1512574251 -15.4772696444 -5.2841556581
209 2 -4.3175610394 -15.3210145632 -2.8613345162
210 2 -3.1512574123 -13.144662392 -3.9374242585
211 2 -12.5965607966 -11.1189291022 -10.3859082288
212 2 -9.8932390015 -14.4288481365 -7.1000749775
213 2 -8.7269353872 -12.2524959382 -8.1761646786
214 2 -12.3768274207 -13.0110069794 -6.6160369089
215 2 -11.1038518955 -13.3948971323 -9.3836270425
216 2 -9.8932390143 -12.0962409062 -5.7533435397
217 1 3.6748407222 -16.7304012863 -0.4202051042
218 1 7.1384461941 -17.7302580621 1.3115976317
219 1 6.9359647947 -17.4748767158 -2.0705469134
220 1 -0.8141482891 -17.9804928023 -4.1346051523
221 1 -2.2896051199 -15.0086140801 -3.4024280253
222 1 0.9715189526 -15.7530895096 -5.0527698345
223 1 1.174000352 -16.0084708559 -1.6706252893
224 1 4.4351244245 -16.7529462853 -3.3209670985
225 1 1.6866920811 -18.7024232328 -2.8841849672
226 2 7.2849253707 -16.6448760541 -0.3219910435
227 2 6.0743124768 -17.943532253 -3.9522745051
228 2 4.9080088497 -17.787277221 -1.5294533662
229 2 6.074312464 -15.6109250227 -2.6055430673
230 2 -0.6676691252 -16.8951107671 -5.7681937864
231 2 0.4986345019 -14.718758596 -6.8442835286
232 2 8.7776342719 -16.5882368045 2.0270215836
233 2 -0.6676691124 -14.5625035147 -4.4214623867
234 2 2.0356526826 -17.872422549 -1.1356291355
235 2 3.201956297 -15.6960703507 -2.2117188365
236 2 -0.4479357365 -16.4545813919 -0.6515910668
237 2 2.2046871612 -16.8099654735 -6.1620179575
238 2 0.8250397887 -16.8384715448 -3.4191812004
239 2 2.0356526699 -15.5398153187 0.2111023024
240 1 -14.7311886143 -8.8710872613 -8.1533143285
241 2 -16.353124609 -6.9845905743 -5.7875485674
242 1 -9.5270264745 -10.5703294685 -2.2703294131
243 1 -8.0515696436 -13.5422081908 -3.0025065401
244 1 -6.0634210026 -11.5701862443 -0.5385266772
245 1 -6.265902402 -11.314804898 -3.9206712223
246 1 -5.5507292734 -14.2641386213 -1.752086355
247 1 -2.8022969301 -12.3146616738 -2.1888684864
248 1 -14.0160154857 -11.8204209846 -5.9847294612
249 1 -15.4914723166 -8.8485422623 -5.2525523342
250 1 -12.2303482441 -9.5930176918 -6.9028941434
251 1 -12.0278668447 -9.8483990381 -3.5207495982
252 1 -8.7667427722 -10.5928744676 -5.1710914074
253 1 -11.5151751155 -12.542351415 -4.7343092761
254 2 -5.916941826 -10.4848042363 -2.1721153524
255 2 -6.0236136987 -13.2298076857 -3.5436000874
256 2 -7.1275547199 -11.7834604352 -5.802398814
257 2 -8.293858347 -11.6272054032 -3.3795776751
258 2 -7.1275547326 -9.4508532049 -4.4556673762
259 2 -7.1899173385 -13.0735526265 -1.1207789073
260 2 -13.8695363219 -10.7350389493 -7.6183180953
261 2 -12.7032326948 -8.5586867782 -8.6944078375
262 2 -4.4242329376 -12.7607722391 -1.1698341249
263 2 -5.5905365519 -12.6045171579 1.252987017
264 2 -4.4242329248 -10.4281649868 0.1768972747
265 2 -13.8695363091 -8.402431697 -6.2715866957
266 2 -11.166214514 -11.7123507312 -2.9857534444
267 2 -9.9999108997 -9.5359985329 -4.0618431455
268 2 -13.6498029332 -10.2945095741 -2.5017153757
269 2 -10.9971800355 -10.6498936557 -8.0121422664
270 2 -12.376827408 -10.678399727 -5.2693055093
271 2 -11.1662145268 -9.3797435009 -1.6390220065
272 1 2.4018652097 -14.013903881 3.694116429
273 1 3.8773220405 -16.9857826033 2.9619393019
274 1 5.8654706816 -15.0137606568 5.4259191649
275 1 5.6629892822 -14.7583793105 2.0437746198
276 1 6.3781624107 -17.7077130338 4.212359487
277 1 9.1265947541 -15.7582360863 3.7755773557
278 1 -2.0871238016 -15.2639953971 -0.0202836191
279 1 -3.5625806324 -12.2921166748 0.7118935079
280 1 -0.3014565599 -13.0365921043 -0.9384483013
281 1 -0.0989751605 -13.2919734506 2.4436962439
282 1 3.162148912 -14.0364488801 0.7933544347
283 1 0.4137165686 -15.9859258275 1.230136566
284 2 6.0119498582 -13.9283786488 3.7923304897
285 2 5.9052779855 -16.6733820982 2.4208457547
286 2 4.8013369643 -15.2270348477 0.1620470281
287 2 3.6350333372 -15.0707798157 2.584868167
288 2 4.8013369515 -12.8944276174 1.5087784659
289 2 4.7389743457 -16.517127039 4.8436669348
290 2 -1.9406446377 -14.1786133618 -1.6538722532
291 2 -0.7743410106 -12.0022611907 -2.7299619954
292 2 7.5046587466 -16.2043466516 4.7946117172
293 2 6.3383551323 -16.0480915704 7.2174328591
294 2 7.5046587594 -13.8717393993 6.1413431168
295 2 -1.9406446249 -11.8460061095 -0.3071408536
296 2 0.7626771701 -15.1559251437 2.9786923977
297 2 1.9289807845 -12.9795729454 1.9026026966
298 2 -1.720911249 -13.7380839866 3.4627304664
299 2 0.9317116487 -14.0934680682 -2.0476964243
300 2 -0.4479357238 -14.1219741395 0.6951403328
301 2 0.7626771574 -12.8233179134 4.3254238355
302 1 8.3663110518 -15.7356910873 6.67633935
303 2 11.1545506736 -15.4458356032 3.2344838467
304 2 9.9882470592 -15.289580522 5.6573049885
305 1 -16.0041641268 -6.154589856 -4.0389927953
306 2 -17.6261001342 -6.6007004214 -3.0199584338
307 2 -18.7924037486 -6.4444453401 -0.5971372919
308 2 -17.6261001215 -4.268093169 -1.6732270342
309 1 -10.800001987 -7.8538320633 1.8439921201
310 1 -9.3245451561 -10.8257107855 1.111814993
311 1 -7.3363965151 -8.853688839 3.575794856
312 1 -7.5388779145 -8.5983074927 0.1936503109
313 1 -6.8237047859 -11.547641216 2.3622351781
314 1 -4.0752724426 -9.5981642685 1.9254530468
315 1 -15.2889909982 -9.1039235793 -1.870407928
316 1 -16.7644478291 -6.132044857 -1.138230801
317 1 -13.5033237566 -6.8765202865 -2.7885726102
318 1 -13.3008423572 -7.1319016328 0.593571935
319 1 -10.0397182847 -7.8763770623 -1.0567698742
320 1 -12.788150628 -9.8258540097 -0.6199877429
321 2 -7.1899173385 -7.768306831 1.9422061808
322 2 -7.2965892112 -10.5133102804 0.5707214458
323 2 -8.4005302324 -9.0669630299 -1.6880772808
324 2 -9.5668338595 -8.9107079979 0.7347438581
325 2 -8.4005302451 -6.7343557996 -0.341345843
326 2 -8.462892851 -10.3570552212 2.9935426259
327 2 -15.1425118344 -8.0185415441 -3.5039965621
328 2 -13.9762082073 -5.8421893729 -4.5800863043
329 2 -5.6972084501 -10.0442748339 2.9444874083
330 2 -6.8635120644 -9.8880197526 5.3673085501
331 2 -5.6972084373 -7.7116675815 4.2912188079
332 2 -15.1425118216 -5.6859342917 -2.1572651625
333 2 -12.4391900265 -8.9958533259 1.1285680888
334 2 -11.2728864122 -6.8195011276 0.0524783877
335 2 -14.9227784457 -7.5780121688 1.6126061575
336 2 -12.270155548 -7.9333962504 -3.8978207332
337 2 -13.6498029205 -7.9619023217 -1.1549839761
338 2 -12.4391900393 -6.6632460956 2.4752995266
339 1 1.1288896972 -11.2974064758 7.8084379622
340 1 2.604346528 -14.269285198 7.0762608351
341 1 4.5924951691 -12.2972632515 9.5402406981
342 1 4.3900137697 -12.0418819052 6.158096153
343 1 5.1051868982 -14.9912156285 8.3266810202
344 1 7.8536192416 -13.041738681 7.8898988889
345 1 -3.3600993141 -12.5474979918 4.0940379141
346 1 -4.8355561449 -9.5756192695 4.8262150411
347 1 -1.5744320724 -10.320094699 3.1758732319
348 1 -1.371950673 -10.5754760453 6.5580177771
349 1 1.8891733995 -11.3199514748 4.9076759679
350 1 -0.8592589439 -13.2694284222 5.3444580992
351 2 4.7389743457 -11.2118812435 7.9066520229
352 2 4.632302473 -13.9568846929 6.5351672879
353 2 3.5283614518 -12.5105374424 4.2763685613
354 2 2.3620578247 -12.3542824104 6.6991897002
355 2 3.528361439 -10.1779302121 5.6230999991
356 2 3.4659988332 -13.8006296337 8.957988468
357 2 -3.2136201502 -11.4621159566 2.46044928
358 2 -2.0473165231 -9.2857637854 1.3843595378
359 2 6.2316832341 -13.4878492464 8.9089332504
360 2 5.0653796198 -13.3315941651 11.3317543922
361 2 6.2316832469 -11.155241994 10.25566465
362 2 -3.2136201374 -9.1295087042 3.8071806796
363 2 -0.5102983424 -12.4394277384 7.0930139309
364 2 0.656005272 -10.2630755401 6.0169242298
365 2 -2.9938867615 -11.0215865813 7.5770519996
366 2 -0.3412638638 -11.3769706629 2.0666251089
367 2 -1.7209112363 -11.4054767342 4.809461866
368 2 -0.5102983551 -10.1068205081 8.4397453687
369 1 7.0933355393 -13.019193682 10.7906608832
370 1 10.3544596118 -13.7636691115 9.140319074
371 2 8.715271534 -14.9056903691 8.4248951221
372 2 9.8815751611 -12.7293381979 7.3488053799
373 2 8.7152715467 -12.5730831167 9.7716265217
374 1 -17.2771396393 -3.4380924508 0.0753287379
375 2 -18.8990756467 -3.8842030161 1.0943630994
376 2 -18.899075634 -1.5515957637 2.441094499
377 1 -12.0729774995 -5.137334658 5.9583136533
378 1 -10.5975206686 -8.1092133802 5.2261365262
379 1 -8.6093720276 -6.1371914338 7.6901163892
380 1 -8.811853427 -5.8818100875 4.3079718441
381 1 -8.0966802984 -8.8311438107 6.4765567113
382 1 -5.3482479551 -6.8816668633 6.03977458
383 1 -16.5619665107 -6.387426174 2.2439136052
384 1 -18.0374233416 -3.4155474517 2.9760907322
385 1 -14.7762992691 -4.1600228812 1.325748923
386 1 -14.5738178697 -4.4154042275 4.7078934682
387 1 -11.3126937972 -5.159879657 3.057551659
388 1 -14.0611261405 -7.1093566045 3.4943337903
389 2 -8.462892851 -5.0518094257 6.056527714
390 2 -8.5695647237 -7.7968128751 4.685042979
391 2 -9.6735057449 -6.3504656247 2.4262442524
392 2 -10.839809372 -6.1942105926 4.8490653913
393 2 -9.6735057576 -4.0178583943 3.7729756902
394 2 -9.7358683635 -7.6405578159 7.1078641591
395 2 -16.4154873469 -5.3020441388 0.6103249711
396 2 -15.2491837198 -3.1256919677 -0.4657647711
397 2 -6.9701839626 -7.3277774286 7.0588089415
398 2 -8.1364875769 -7.1715223473 9.4816300833
399 2 -6.9701839498 -4.9951701762 8.4055403411
400 2 -16.4154873341 -2.9694368864 1.9570563707
401 2 -13.712165539 -6.2793559207 5.242889622
402 2 -12.5458619247 -4.1030037224 4.1667999209
403 2 -16.1957539582 -4.8615147635 5.7269276907
404 2 -13.5431310605 -5.2168988452 0.2165008
405 2 -14.922778433 -5.2454049164 2.9593375571
406 2 -13.7121655518 -3.9467486903 6.5896210598
407 1 -0.1440858153 -8.5809090705 11.9227594954
408 1 1.3313710155 -11.5527877927 11.1905823683
409 1 3.3195196566 -9.5807658463 13.6545622313
410 1 3.1170382572 -9.3253845 10.2724176862
411 1 3.8322113857 -12.2747182232 12.4410025534
412 1 6.5806437291 -10.3252412758 12.0042204221
413 1 -4.6330748266 -9.8310005865 8.2083594473
414 1 -6.1085316574 -6.8591218642 8.9405365743
415 1 -2.8474075849 -7.6035972937 7.2901947651
416 1 -2.6449261855 -7.85897864 10.6723393103
417 1 0.616197887 -8.6034540695 9.0219975011
418 1 -2.1322344564 -10.552931017 9.4587796324
419 2 3.4659988332 -8.4953838382 12.0209735561
420 2 3.3593269605 -11.2403872876 10.6494888211
421 2 2.2553859393 -9.7940400372 8.3906900945
422 2 1.0890823122 -9.6377850051 10.8135112334
423 2 2.2553859265 -7.4614328068 9.7374215323
424 2 2.1930233207 -11.0841322284 13.0723100011
425 2 -4.4865956627 -8.7456185513 6.5747708132
426 2 -3.3202920356 -6.5692663802 5.498681071
427 2 4.9587077216 -10.7713518411 13.0232547836
428 2 3.7924041073 -10.6150967598 15.4460759254
429 2 4.9587077344 -8.4387445887 14.3699861832
430 2 -4.4865956499 -6.4130112989 7.9215022128
431 2 -1.7832738549 -9.7229303332 11.2073354641
432 2 -0.6169702405 -7.5465781349 10.131245763
433 2 -4.266862274 -8.305089176 11.6913735328
434 2 -1.6142393763 -8.6604732577 6.1809466421
435 2 -2.9938867488 -8.6889793289 8.9237833992
436 2 -1.7832738676 -7.3903231028 12.5540669019
437 1 5.8203600268 -10.3026962767 14.9049824164
438 1 9.0814840993 -11.0471717062 13.2546406072
439 2 7.4422960215 -12.1891929638 12.5392166553
440 2 8.6085996486 -10.0128407927 11.4631269131
441 2 7.4422960342 -9.8565857114 13.8859480549
442 1 -18.5501151518 -0.7215950455 4.1896502711
443 1 -13.345953012 -2.4208372527 10.0726351864
444 1 -11.8704961811 -5.392715975 9.3404580594
445 1 -9.8823475401 -3.4206940285 11.8044379224
446 1 -10.0848289395 -3.1653126822 8.4222933772
447 1 -9.3696558109 -6.1146464054 10.5908782445
448 1 -6.6212234676 -4.165169458 10.1540961132
449 1 -17.8349420232 -3.6709287687 6.3582351384
450 1 -16.0492747816 -1.4435254759 5.4400704562
451 1 -15.8467933822 -1.6989068222 8.8222150013
452 1 -12.5856693097 -2.4433822517 7.1718731921
453 1 -15.334101653 -4.3928591992 7.6086553235
454 2 -9.7358683635 -2.3353120204 10.1708492472
455 2 -9.8425402362 -5.0803154698 8.7993645122
456 2 -10.9464812574 -3.6339682194 6.5405657856
457 2 -12.1127848845 -3.4777131873 8.9633869245
458 2 -10.9464812701 -1.301360989 7.8872972234
459 2 -11.008843876 -4.9240604106 11.2221856922
460 2 -17.6884628594 -2.5855467335 4.7246465043
461 2 -16.5221592323 -0.4091945624 3.6485567621
462 2 -8.2431594751 -4.6112800233 11.1731304747
463 2 -9.4094630894 -4.4550249421 13.5959516165
464 2 -8.2431594623 -2.2786727709 12.5198618743
465 2 -17.6884628466 -0.2529394811 6.0713779039
466 2 -14.9851410515 -3.5628585154 9.3572111552
467 2 -13.8188374372 -1.3865063171 8.2811214541
468 2 -14.816106573 -2.5004014399 4.3308223332
469 2 -16.1957539455 -2.5289075111 7.0736590903
470 2 -14.9851410643 -1.2302512851 10.703942593
471 1 -1.4170613278 -5.8644116652 16.0370810285
472 1 0.058395503 -8.8362903875 15.3049039015
473 1 2.0465441441 -6.864268441 17.7688837645
474 1 1.8440627447 -6.6088870947 14.3867392193
475 1 2.5592358732 -9.5582208179 16.5553240866
476 1 5.3076682166 -7.6087438705 16.1185419553
477 1 -5.9060503391 -7.1145031812 12.3226809805
478 1 -7.3815071699 -4.142624459 13.0548581075
479 1 -4.1203830974 -4.8870998884 11.4045162983
480 1 -3.917901698 -5.1424812347 14.7866608434
481 1 -0.6567776255 -5.8869566642 13.1363190342
482 1 -3.4052099689 -7.8364336117 13.5731011656
483 2 2.1930233207 -5.7788864329 16.1352950893
484 2 2.086351448 -8.5238898823 14.7638103543
485 2 0.9824104268 -7.0775426319 12.5050116277
486 2 -0.1838932003 -6.9212875998 14.9278327666
487 2 0.982410414 -4.7449354015 13.8517430655
488 2 0.9200478082 -8.3676348231 17.1866315343
489 2 -5.7595711752 -6.029121146 10.6890923464
490 2 -4.5932675481 -3.8527689749 9.6130026042
491 2 3.6857322091 -8.0548544358 17.1375763168
492 2 3.6857322219 -5.7222471834 18.4843077164
493 2 -5.7595711624 -3.6965138936 12.035823746
494 2 -3.0562493674 -7.0064329279 15.3216569973
495 2 -1.889945753 -4.8300807296 14.2455672962
496 2 -5.5398377865 -5.5885917708 15.8056950659
497 2 -2.8872148888 -5.9439758524 10.2952681753
498 2 -4.2668622613 -5.9724819236 13.0381049324
499 2 -3.0562493801 -4.6738256976 16.6683884351
500 2 7.3356241361 -7.2963433874 15.5774484463
501 1 -13.1434716936 -2.6762185697 13.4547795926
502 1 -11.1553230526 -0.7041966232 15.9187594556
503 1 -11.357804452 -0.4488152769 12.5366149104
504 1 -10.6426313234 -3.3981490002 14.7051997777
505 1 -7.8941989801 -1.4486720527 14.2684176464
506 1 -17.3222502941 1.2729719293 9.5543919894
507 1 -13.8586448222 0.2731151536 11.2861947253
508 2 -11.008843876 0.3811853848 14.2851707804
509 2 -11.1155157487 -2.3638180645 12.9136860454
510 2 -12.2194567699 -0.9174708141 10.6548873188
511 2 -13.385760397 -0.7612157821 13.0777084577
512 2 -12.2194567826 1.4151364162 12.0016187566
513 2 -12.2818193885 -2.2075630053 15.3365072254
514 2 -17.7951347448 2.3073028429 7.7628782953
515 2 -9.5161349876 -1.894782618 15.2874520079
516 2 -9.5161349748 0.4378246344 16.6341834075
517 2 -15.0918129497 1.3299910882 12.3954429873
518 2 -16.0890820855 0.2160959654 8.4451438664
519 1 0.5710872322 -3.8923896894 18.5010607525
520 1 -7.1790258516 -4.3980057759 16.4370025137
521 1 -8.6544826824 -1.4261270537 17.1691796407
522 1 -5.3933586099 -2.1706024832 15.5188378315
523 1 -5.1908772105 -2.4259838295 18.9009823766
524 1 -1.929753138 -3.1704592589 17.2506405674
525 1 -4.6781854814 -5.1199362064 17.6874226988
526 2 0.8133759355 -5.807392477 18.8781318875
527 2 -0.2905650857 -4.3610452266 16.6193331609
528 2 -1.4568687128 -4.2047901946 19.0421542998
529 2 -0.2905650985 -2.0284379963 17.9660645987
530 2 -7.0325466877 -3.3126237407 14.8034138796
531 2 -5.8662430606 -1.1362715696 13.7273241374
532 2 -7.0325466749 -0.9800164883 16.1501452792
533 2 -3.1629212655 -2.1135833243 18.3598888294
534 2 -4.1601904013 -3.2274784471 14.4095897085
535 2 -5.5398377738 -3.2559845184 17.1524264656
536 2 -7.1392185731 1.5802258357 17.8416456705
537 2 -5.4331659138 -0.5109810418 18.5239112417
538 1 -5.708099937 -11.0819686094 -10.2035774838
539 1 -4.2326431061 -14.0538473316 -10.9357546108
540 1 -2.2444944651 -12.0818253852 -8.4717747479
541 1 -2.4469758645 -11.8264440389 -11.853919293
542 1 -1.7318027359 -14.7757777621 -9.6853344257
543 1 1.0166296074 -12.8263008146 -10.1221165571
544 1 -11.6725457791 -9.3601814031 -13.1858004049
545 1 -8.4114217066 -10.1046568326 -14.8361422141
546 1 -8.2089403072 -10.3600381789 -11.4539976689
547 1 -4.9478162347 -11.1045136084 -13.1043394781
548 1 -7.696248578 -13.0539905559 -12.6675573468
549 2 -2.0980152885 -10.9964433771 -10.1053634231
550 2 -2.2046871612 -13.7414468265 -11.4768481581
551 2 -3.3086281824 -12.2950995761 -13.7356468847
552 2 -4.4749318095 -12.138844544 -11.3128257458
553 2 -3.3086281951 -9.9624923457 -12.3889154469
554 2 -3.370990801 -13.5851917673 -9.054026978
555 2 -0.6053064001 -13.27241138 -9.1030821956
556 2 -1.7716100144 -13.1161562987 -6.6802610537
557 2 -0.6053063873 -10.9398041276 -7.756350796
558 2 -10.0506097716 -8.9140708378 -14.2048347663
559 2 -7.3472879765 -12.2239898721 -10.919001515
560 2 -6.1809843622 -10.0476376738 -11.9950912161
561 2 -9.8308763957 -10.8061487149 -10.4349634464
562 2 -8.5579008705 -11.1900388678 -13.20255358
563 2 -7.3472879893 -9.8913826417 -9.5722700772
564 1 6.2207917472 -14.5255430219 -4.2391316417
565 1 7.696248578 -17.4974217441 -4.9713087687
566 1 9.6843972191 -15.5253997977 -2.5073289058
567 1 9.4819158197 -15.2700184514 -5.8894734509
568 1 1.7318027359 -15.7756345379 -7.9535316898
569 1 0.2563459051 -12.8037558156 -7.2213545628
570 1 3.5174699776 -13.5482312451 -8.871696372
571 1 3.719951377 -13.8036125914 -5.4895518268
572 1 6.9810754495 -14.5480880209 -7.139893636
573 1 4.2326431061 -16.4975649684 -6.7031115047
574 2 9.8308763957 -14.4400177896 -4.140917581
575 2 8.6202635018 -15.7386739886 -7.7712010426
576 2 7.4539598747 -15.5824189565 -5.3483799037
577 2 8.620263489 -13.4060667582 -6.4244696048
578 2 8.5579008832 -17.0287661798 -3.0895811359
579 2 1.8782818998 -14.6902525027 -9.5871203239
580 2 3.0445855269 -12.5139003315 -10.6632100661
581 2 10.1572816698 -16.5597307112 -0.7158152116
582 2 11.3235852969 -14.3833785401 -1.7919049539
583 2 1.8782819126 -12.3576452503 -8.2403889242
584 2 4.5816037076 -15.6675642846 -4.954555673
585 2 5.747907322 -13.4912120863 -6.030645374
586 2 2.0980152885 -14.2497231274 -4.4705176043
587 2 4.7506381862 -14.6051072091 -9.980944495
588 2 3.3709908137 -14.6336132803 -7.2381077379
589 2 4.5816036949 -13.3349570542 -3.6078242351
590 1 -15.4463616618 -5.9217535674 -10.3218990568
591 1 -12.1852375893 -6.6662289969 -11.972240866
592 2 -13.8071735967 -7.1123395622 -10.9532065045
593 2 -14.9734772111 -6.956084481 -8.5303853626
594 2 -13.807173584 -4.7797323098 -9.6064751049
595 1 -6.9810754495 -8.3654712041 -6.0892559506
596 1 -5.5056186186 -11.3373499264 -6.8214330776
597 1 -3.5174699776 -9.3653279799 -4.3574532147
598 1 -3.719951377 -9.1099466336 -7.7395977598
599 1 -3.0047782484 -12.0592803568 -5.5710128925
600 1 -0.2563459051 -10.1098034094 -6.0077950239
601 1 -11.4700644607 -9.6155627201 -9.8036559987
602 1 -12.9455212916 -6.6436839979 -9.0714788717
603 1 -9.6843972191 -7.3881594273 -10.7218206809
604 1 -9.4819158197 -7.6435407736 -7.3396761357
605 1 -6.2207917472 -8.3880162031 -8.9900179449
606 1 -8.9692240905 -10.3374931506 -8.5532358136
607 2 -3.370990801 -8.2799459718 -5.9910418899
608 2 -3.4776626737 -11.0249494212 -7.3625266249
609 2 -4.5816036949 -9.5786021708 -9.6213253515
610 2 -5.747907322 -9.4223471387 -7.1985042126
611 2 -4.5816037076 -7.2459949404 -8.2745939137
612 2 -4.6439663135 -10.868694362 -4.9397054448
613 2 -11.3235852969 -8.5301806849 -11.4372446328
614 2 -10.1572816698 -6.3538285138 -12.513334375
615 2 -1.8782819126 -10.5559139747 -4.9887606624
616 2 -3.0445855269 -10.3996588935 -2.5659395205
617 2 -1.8782818998 -8.2233067223 -3.6420292628
618 2 -11.3235852841 -6.1975734325 -10.0905132332
619 2 -8.620263489 -9.5074924668 -6.8046799819
620 2 -7.4539598747 -7.3311402685 -7.880769683
621 2 -11.1038519082 -8.0896513097 -6.3206419132
622 2 -8.4512290105 -8.4450353913 -11.8310688039
623 2 -9.830876383 -8.4735414625 -9.0882320468
624 2 -8.6202635018 -7.1748852364 -5.457948544
625 1 4.9478162347 -11.8090456166 -0.1248101085