# LAMMPS data file written by Ovito 3.10.6

4880 atoms
2 atom types

-23.0 23.0 xlo xhi
-23.0 23.0 ylo yhi
-23.0 23.0 zlo zhi

Masses

1 55.845  # Fe3+
2 15.9994  # O2-

Atoms  # atomic

1 1 -10.1838040745 -20.5786771495 -0.2960027693
2 2 -10.9613398599 -18.9855975563 -3.4435744125
3 2 -9.4062683656 -19.2319457087 -5.7392907334
4 2 -11.9522193651 -17.7620402138 -1.1478580916
5 1 -12.7297551505 -19.1087716105 0.2960027693
6 2 -8.6287326058 -20.5786771495 1.1478580916
7 2 -10.9613398344 -19.2319457087 1.1478580916
8 1 -15.2757061755 -14.6990550816 -6.5911460557
9 1 -15.2757061755 -14.6990550816 -2.5917189525
10 1 -12.7297550995 -16.1689606206 -4.2954298725
11 1 -12.7297550995 -16.1689606206 -0.2960027693
12 1 -12.7297550995 -16.1689606206 -7.1831515943
13 2 -13.5072908849 -14.5758810274 -3.4435744125
14 2 -13.7206346303 -17.6388661155 -3.4435744125
15 2 -11.9522193651 -17.5156920173 -5.7392907334
16 2 -14.2848266192 -16.1689606206 -5.7392907334
17 2 -11.9522193906 -14.8222291798 -5.7392907334
18 2 -14.4981704156 -16.0457865223 -1.1478580916
19 2 -16.8307776442 -14.6990550816 -1.1478580916
20 2 -14.4981703901 -13.3523236849 -1.1478580916
21 2 -13.7206346558 -14.6990550816 -8.0350069166
22 2 -16.0532419099 -13.3523236849 -8.0350069166
23 1 -15.2757061755 -14.6990550816 7.1831515943
24 1 -12.7297550995 -16.1689606206 9.4788677775
25 1 -15.2757061755 -14.6990550816 0.2960027693
26 1 -12.7297550995 -16.1689606206 2.5917189525
27 1 -15.2757061755 -14.6990550816 4.2954298725
28 1 -12.7297550995 -16.1689606206 6.5911460557
29 2 -13.5072908849 -14.5758810274 10.3307232375
30 2 -11.9522193651 -17.5156920173 8.0350069166
31 2 -11.9522193906 -14.8222291798 8.0350069166
32 2 -13.5072908849 -17.5156920173 1.1478580916
33 2 -11.1746836308 -16.1689606206 1.1478580916
34 2 -13.5072908594 -14.8222291798 1.1478580916
35 2 -13.7206346558 -14.6990550816 5.7392907334
36 2 -17.0441214151 -14.5758810274 3.4435744125
37 2 -11.7388756197 -17.6388661155 3.4435744125
38 2 -14.4981703647 -16.2921347189 3.4435744125
39 2 -16.0532419099 -13.3523236849 5.7392907334
40 1 -17.8216572005 -10.2893385527 -6.5911460557
41 1 -17.821657175 -13.2291495866 -4.8874352734
42 1 -17.8216572005 -10.2893385527 -2.5917189525
43 1 -15.2757061245 -11.7592440917 -4.2954298725
44 1 -17.821657175 -13.2291495866 -1.9997135516
45 1 -15.2757061245 -11.7592440917 -0.2960027693
46 1 -15.2757061245 -11.7592440917 -11.1825786975
47 1 -17.8216572005 -10.2893385527 -9.4788677775
48 1 -15.2757061245 -11.7592440917 -7.1831515943
49 2 -16.0532419099 -10.1661644985 -3.4435744125
50 2 -16.2665856553 -13.2291495866 -3.4435744125
51 2 -14.4981703901 -13.1059754884 -5.7392907334
52 2 -16.8307776442 -11.7592440917 -5.7392907334
53 2 -14.4981704156 -10.412512651 -5.7392907334
54 2 -18.5991929349 -11.8824181459 -3.4435744125
55 2 -13.7206346558 -11.7592440917 -12.6264395584
56 2 -17.0441214406 -11.6360699935 -1.1478580916
57 2 -19.3767286692 -10.2893385527 -1.1478580916
58 2 -17.0441214151 -8.942607156 -1.1478580916
59 2 -16.2665856808 -10.2893385527 -8.0350069166
60 2 -14.2848266447 -13.2291495866 -10.3307232375
61 2 -18.5991929349 -8.942607156 -8.0350069166
62 1 -17.8216572005 -10.2893385527 7.1831515943
63 1 -15.2757061245 -11.7592440917 9.4788677775
64 1 -17.821657175 -13.2291495866 1.9997135516
65 1 -17.8216572005 -10.2893385527 0.2960027693
66 1 -15.2757061245 -11.7592440917 2.5917189525
67 1 -17.8216572005 -10.2893385527 4.2954298725
68 1 -15.2757061245 -11.7592440917 6.5911460557
69 1 -17.821657175 -13.2291495866 4.8874352734
70 2 -16.0532419099 -10.1661644985 10.3307232375
71 2 -14.4981703901 -13.1059754884 8.0350069166
72 2 -16.8307776442 -11.7592440917 8.0350069166
73 2 -14.4981704156 -10.412512651 8.0350069166
74 2 -16.0532419099 -13.1059754884 1.1478580916
75 2 -13.7206346558 -11.7592440917 1.1478580916
76 2 -16.0532418844 -10.412512651 1.1478580916
77 2 -18.5991929094 -11.6360699935 5.7392907334
78 2 -16.2665856808 -10.2893385527 5.7392907334
79 2 -19.5900724401 -10.1661644985 3.4435744125
80 2 -14.2848266447 -13.2291495866 3.4435744125
81 2 -17.0441213897 -11.88241819 3.4435744125
82 2 -18.5991929349 -8.942607156 5.7392907334
83 1 -20.3676082255 -5.8796220238 -6.5911460557
84 1 -20.3676082 -8.8194330578 -4.8874352734
85 1 -20.3676082255 -5.8796220238 -2.5917189525
86 1 -17.8216571495 -7.3495275628 -4.2954298725
87 1 -20.3676082 -8.8194330578 -1.9997135516
88 1 -17.8216571495 -7.3495275628 -0.2960027693
89 1 -17.8216571495 -7.3495275628 -11.1825786975
90 1 -17.8216571495 -7.3495275628 -7.1831515943
91 2 -18.5991929349 -5.7564479696 -3.4435744125
92 2 -18.8125366803 -8.8194330578 -3.4435744125
93 2 -17.0441214151 -8.6962589595 -5.7392907334
94 2 -19.3767286692 -7.3495275628 -5.7392907334
95 2 -17.0441214406 -6.0027961221 -5.7392907334
96 2 -21.1451439599 -7.472701617 -3.4435744125
97 2 -16.2665856808 -7.3495275628 -12.6264395584
98 2 -19.5900724656 -7.2263534646 -1.1478580916
99 2 -21.9226796942 -5.8796220238 -1.1478580916
100 2 -19.5900724401 -4.5328906271 -1.1478580916
101 2 -18.8125367058 -5.8796220238 -8.0350069166
102 2 -16.8307776697 -8.8194330578 -10.3307232375
103 1 -20.3676082255 -5.8796220238 7.1831515943
104 1 -17.8216571495 -7.3495275628 9.4788677775
105 1 -20.3676082 -8.8194330578 1.9997135516
106 1 -20.3676082255 -5.8796220238 0.2960027693
107 1 -17.8216571495 -7.3495275628 2.5917189525
108 1 -20.3676082255 -5.8796220238 4.2954298725
109 1 -17.8216571495 -7.3495275628 6.5911460557
110 1 -20.3676082 -8.8194330578 4.8874352734
111 2 -18.5991929349 -5.7564479696 10.3307232375
112 2 -17.0441214151 -8.6962589595 8.0350069166
113 2 -19.3767286692 -7.3495275628 8.0350069166
114 2 -17.0441214406 -6.0027961221 8.0350069166
115 2 -18.5991929349 -8.6962589595 1.1478580916
116 2 -16.2665856808 -7.3495275628 1.1478580916
117 2 -18.5991929094 -6.0027961221 1.1478580916
118 2 -18.8125367058 -5.8796220238 5.7392907334
119 2 -16.8307776697 -8.8194330578 3.4435744125
120 2 -19.5900724147 -7.4727016611 3.4435744125
121 2 -21.1451439599 -4.5328906271 5.7392907334
122 1 -20.3676081745 -2.939811034 -4.2954298725
123 1 -20.3676081745 -2.939811034 -0.2960027693
124 1 -20.3676081745 -2.939811034 -7.1831515943
125 2 -21.1451439599 -1.3467314408 -3.4435744125
126 2 -21.3584877053 -4.4097165289 -3.4435744125
127 2 -19.5900724401 -4.2865424306 -5.7392907334
128 2 -21.9226796942 -2.939811034 -5.7392907334
129 2 -19.5900724656 -1.5930795932 -5.7392907334
130 2 -18.8125367058 -2.939811034 -12.6264395584
131 2 -22.1360234906 -2.8166369357 -1.1478580916
132 2 -22.1360234651 -0.1231740983 -1.1478580916
133 2 -19.3767286947 -4.4097165289 -10.3307232375
134 1 -20.3676081745 -2.939811034 9.4788677775
135 1 -22.9135592505 -1.4699054949 0.2960027693
136 1 -20.3676081745 -2.939811034 2.5917189525
137 1 -20.3676081745 -2.939811034 6.5911460557
138 2 -19.5900724401 -4.2865424306 8.0350069166
139 2 -19.5900724656 -1.5930795932 8.0350069166
140 2 -21.1451439599 -4.2865424306 1.1478580916
141 2 -18.8125367058 -2.939811034 1.1478580916
142 2 -21.1451439344 -1.5930795932 1.1478580916
143 2 -21.3584877308 -1.4699054949 5.7392907334
144 2 -19.3767286947 -4.4097165289 3.4435744125
145 2 -22.1360234397 -3.0629851322 3.4435744125
146 1 -22.9135591995 1.4699054949 -0.2960027693
147 2 -21.3584877308 1.4699054949 1.1478580916
148 2 -21.9226797197 0.0 3.4435744125
149 1 -7.6378531005 -19.1087716105 -6.5911460557
150 1 -7.6378531005 -19.1087716105 -2.5917189525
151 1 -5.0919020245 -20.5786771495 -4.2954298725
152 1 -5.0919020245 -20.5786771495 -0.2960027693
153 1 -7.6378531005 -19.1087716105 -9.4788677775
154 1 -5.0919020245 -20.5786771495 -7.1831515943
155 2 -5.8694378099 -18.9855975563 -3.4435744125
156 2 -6.6469735442 -20.5786771495 -5.7392907334
157 2 -4.3143663156 -19.2319457087 -5.7392907334
158 2 -8.4153888349 -20.7018512036 -3.4435744125
159 2 -6.8603173406 -20.4555030512 -1.1478580916
160 2 -9.1929245692 -19.1087716105 -1.1478580916
161 2 -6.8603173151 -17.7620402138 -1.1478580916
162 2 -6.0827815808 -19.1087716105 -8.0350069166
163 2 -8.4153888349 -17.7620402138 -8.0350069166
164 1 -7.6378531005 -19.1087716105 7.1831515943
165 1 -7.6378531005 -19.1087716105 0.2960027693
166 1 -5.0919020245 -20.5786771495 2.5917189525
167 1 -7.6378531005 -19.1087716105 4.2954298725
168 1 -5.0919020245 -20.5786771495 6.5911460557
169 2 -5.8694378099 -18.9855975563 10.3307232375
170 2 -4.3143663156 -19.2319457087 8.0350069166
171 2 -5.8694378099 -21.9254085461 1.1478580916
172 2 -3.5368305558 -20.5786771495 1.1478580916
173 2 -6.8603173151 -17.7620402138 12.6264395584
174 2 -5.8694377844 -19.2319457087 1.1478580916
175 2 -6.0827815808 -19.1087716105 5.7392907334
176 2 -9.4062683401 -18.9855975563 3.4435744125
177 2 -4.1010225447 -22.0485826444 3.4435744125
178 2 -6.8603172897 -20.7018512477 3.4435744125
179 2 -8.4153888349 -17.7620402138 5.7392907334
180 1 -7.6378530495 -16.1689606206 -14.0703004193
181 2 -9.4062683401 -13.3523236849 -14.9221557416
182 1 -10.1838041255 -14.6990550816 -6.5911460557
183 1 -10.1838041 -17.6388661155 -4.8874352734
184 1 -10.1838041255 -14.6990550816 -2.5917189525
185 1 -7.6378530495 -16.1689606206 -4.2954298725
186 1 -10.1838041 -17.6388661155 -1.9997135516
187 1 -7.6378530495 -16.1689606206 -0.2960027693
188 1 -10.1838041255 -14.6990550816 -13.4782948807
189 1 -7.6378530495 -16.1689606206 -11.1825786975
190 1 -10.1838041255 -14.6990550816 -9.4788677775
191 1 -7.6378530495 -16.1689606206 -7.1831515943
192 1 -10.1838041 -17.6388661155 -8.8868623766
193 2 -8.4153888349 -14.5758810274 -3.4435744125
194 2 -8.6287325803 -17.6388661155 -3.4435744125
195 2 -6.8603173151 -17.5156920173 -5.7392907334
196 2 -9.1929245692 -16.1689606206 -5.7392907334
197 2 -6.8603173406 -14.8222291798 -5.7392907334
198 2 -10.9613398599 -16.2921346748 -3.4435744125
199 2 -6.0827815808 -16.1689606206 -12.6264395584
200 2 -9.4062683656 -16.0457865223 -1.1478580916
201 2 -11.7388755942 -14.6990550816 -1.1478580916
202 2 -9.4062683401 -13.3523236849 -1.1478580916
203 2 -8.4153888094 -14.8222291798 -12.6264395584
204 2 -10.9613398344 -16.0457865223 -8.0350069166
205 2 -8.6287326058 -14.6990550816 -8.0350069166
206 2 -11.9522193651 -14.5758810274 -10.3307232375
207 2 -6.6469735697 -17.6388661155 -10.3307232375
208 2 -9.4062683147 -16.2921347189 -10.3307232375
209 2 -10.9613398599 -13.3523236849 -8.0350069166
210 1 -10.1838041255 -14.6990550816 7.1831515943
211 1 -10.1838041 -17.6388661155 8.8868623766
212 1 -10.1838041255 -14.6990550816 11.1825786975
213 1 -7.6378530495 -16.1689606206 9.4788677775
214 1 -7.6378530495 -16.1689606206 13.4782948807
215 1 -10.1838041 -17.6388661155 1.9997135516
216 1 -10.1838041255 -14.6990550816 0.2960027693
217 1 -7.6378530495 -16.1689606206 2.5917189525
218 1 -10.1838041255 -14.6990550816 4.2954298725
219 1 -7.6378530495 -16.1689606206 6.5911460557
220 1 -10.1838041 -17.6388661155 4.8874352734
221 2 -8.4153888349 -14.5758810274 10.3307232375
222 2 -8.6287325803 -17.6388661155 10.3307232375
223 2 -6.8603173151 -17.5156920173 8.0350069166
224 2 -9.1929245692 -16.1689606206 8.0350069166
225 2 -6.8603173406 -14.8222291798 8.0350069166
226 2 -10.9613398599 -16.2921346748 10.3307232375
227 2 -8.4153888349 -17.5156920173 1.1478580916
228 2 -6.0827815808 -16.1689606206 1.1478580916
229 2 -9.4062683656 -16.0457865223 12.6264395584
230 2 -11.7388755942 -14.6990550816 12.6264395584
231 2 -9.4062683401 -13.3523236849 12.6264395584
232 2 -8.4153888094 -14.8222291798 1.1478580916
233 2 -10.9613398344 -16.0457865223 5.7392907334
234 2 -8.6287326058 -14.6990550816 5.7392907334
235 2 -11.9522193651 -14.5758810274 3.4435744125
236 2 -6.6469735697 -17.6388661155 3.4435744125
237 2 -9.4062683147 -16.2921347189 3.4435744125
238 2 -10.9613398599 -13.3523236849 5.7392907334
239 1 -10.1838041255 -14.6990550816 14.0703004193
240 2 -6.0827815808 -16.1689606206 14.9221557416
241 2 -8.4153888094 -14.8222291798 14.9221557416
242 1 -10.1838040745 -11.7592440917 -14.0703004193
243 2 -10.9613398599 -10.1661644985 -17.2178720625
244 2 -11.9522193906 -11.6360699935 -14.9221557416
245 2 -11.9522193651 -8.942607156 -14.9221557416
246 1 -12.7297551505 -10.2893385527 -6.5911460557
247 1 -12.729755125 -13.2291495866 -4.8874352734
248 1 -12.7297551505 -10.2893385527 -2.5917189525
249 1 -10.1838040745 -11.7592440917 -4.2954298725
250 1 -12.729755125 -13.2291495866 -1.9997135516
251 1 -10.1838040745 -11.7592440917 -0.2960027693
252 1 -12.729755125 -13.2291495866 -11.7745840984
253 1 -12.7297551505 -10.2893385527 -13.4782948807
254 1 -10.1838040745 -11.7592440917 -11.1825786975
255 1 -12.7297551505 -10.2893385527 -9.4788677775
256 1 -10.1838040745 -11.7592440917 -7.1831515943
257 1 -12.729755125 -13.2291495866 -8.8868623766
258 2 -10.9613398599 -10.1661644985 -3.4435744125
259 2 -11.1746836053 -13.2291495866 -3.4435744125
260 2 -9.4062683401 -13.1059754884 -5.7392907334
261 2 -11.7388755942 -11.7592440917 -5.7392907334
262 2 -9.4062683656 -10.412512651 -5.7392907334
263 2 -13.5072908849 -11.8824181459 -3.4435744125
264 2 -10.9613398599 -13.1059754884 -12.6264395584
265 2 -8.6287326058 -11.7592440917 -12.6264395584
266 2 -11.9522193906 -11.6360699935 -1.1478580916
267 2 -14.2848266192 -10.2893385527 -1.1478580916
268 2 -11.9522193651 -8.942607156 -1.1478580916
269 2 -10.9613398344 -10.412512651 -12.6264395584
270 2 -13.5072908594 -11.6360699935 -8.0350069166
271 2 -11.1746836308 -10.2893385527 -8.0350069166
272 2 -14.4981703901 -10.1661644985 -10.3307232375
273 2 -9.1929245947 -13.2291495866 -10.3307232375
274 2 -11.9522193397 -11.88241819 -10.3307232375
275 2 -13.5072908849 -8.942607156 -8.0350069166
276 1 -12.7297551505 -10.2893385527 7.1831515943
277 1 -12.729755125 -13.2291495866 8.8868623766
278 1 -12.7297551505 -10.2893385527 11.1825786975
279 1 -10.1838040745 -11.7592440917 9.4788677775
280 1 -12.729755125 -13.2291495866 11.7745840984
281 1 -10.1838040745 -11.7592440917 13.4782948807
282 1 -12.729755125 -13.2291495866 1.9997135516
283 1 -12.7297551505 -10.2893385527 0.2960027693
284 1 -10.1838040745 -11.7592440917 2.5917189525
285 1 -12.7297551505 -10.2893385527 4.2954298725
286 1 -10.1838040745 -11.7592440917 6.5911460557
287 1 -12.729755125 -13.2291495866 4.8874352734
288 2 -10.9613398599 -10.1661644985 10.3307232375
289 2 -11.1746836053 -13.2291495866 10.3307232375
290 2 -9.4062683401 -13.1059754884 8.0350069166
291 2 -11.7388755942 -11.7592440917 8.0350069166
292 2 -9.4062683656 -10.412512651 8.0350069166
293 2 -13.5072908849 -11.8824181459 10.3307232375
294 2 -10.9613398599 -13.1059754884 1.1478580916
295 2 -8.6287326058 -11.7592440917 1.1478580916
296 2 -11.9522193906 -11.6360699935 12.6264395584
297 2 -14.2848266192 -10.2893385527 12.6264395584
298 2 -11.9522193651 -8.942607156 12.6264395584
299 2 -10.9613398344 -10.412512651 1.1478580916
300 2 -13.5072908594 -11.6360699935 5.7392907334
301 2 -11.1746836308 -10.2893385527 5.7392907334
302 2 -14.4981703901 -10.1661644985 3.4435744125
303 2 -9.1929245947 -13.2291495866 3.4435744125
304 2 -11.9522193397 -11.88241819 3.4435744125
305 2 -13.5072908849 -8.942607156 5.7392907334
306 1 -12.7297551505 -10.2893385527 14.0703004193
307 1 -10.1838040745 -11.7592440917 16.3660166025
308 2 -10.9613398599 -13.1059754884 14.9221557416
309 2 -8.6287326058 -11.7592440917 14.9221557416
310 2 -10.9613398344 -10.412512651 14.9221557416
311 1 -12.7297550995 -7.3495275628 -14.0703004193
312 2 -13.5072908849 -5.7564479696 -17.2178720625
313 2 -14.4981704156 -7.2263534646 -14.9221557416
314 2 -14.4981703901 -4.5328906271 -14.9221557416
315 1 -15.2757061755 -5.8796220238 -6.5911460557
316 1 -15.27570615 -8.8194330578 -4.8874352734
317 1 -15.2757061755 -5.8796220238 -2.5917189525
318 1 -12.7297550995 -7.3495275628 -4.2954298725
319 1 -15.27570615 -8.8194330578 -1.9997135516
320 1 -12.7297550995 -7.3495275628 -0.2960027693
321 1 -15.27570615 -8.8194330578 -11.7745840984
322 1 -15.2757061755 -5.8796220238 -13.4782948807
323 1 -12.7297550995 -7.3495275628 -11.1825786975
324 1 -15.2757061755 -5.8796220238 -9.4788677775
325 1 -12.7297550995 -7.3495275628 -7.1831515943
326 1 -15.27570615 -8.8194330578 -8.8868623766
327 2 -13.5072908849 -5.7564479696 -3.4435744125
328 2 -13.7206346303 -8.8194330578 -3.4435744125
329 2 -11.9522193651 -8.6962589595 -5.7392907334
330 2 -14.2848266192 -7.3495275628 -5.7392907334
331 2 -11.9522193906 -6.0027961221 -5.7392907334
332 2 -16.0532419099 -7.472701617 -3.4435744125
333 2 -13.5072908849 -8.6962589595 -12.6264395584
334 2 -11.1746836308 -7.3495275628 -12.6264395584
335 2 -14.4981704156 -7.2263534646 -1.1478580916
336 2 -16.8307776442 -5.8796220238 -1.1478580916
337 2 -14.4981703901 -4.5328906271 -1.1478580916
338 2 -13.5072908594 -6.0027961221 -12.6264395584
339 2 -16.0532418844 -7.2263534646 -8.0350069166
340 2 -13.7206346558 -5.8796220238 -8.0350069166
341 2 -17.0441214151 -5.7564479696 -10.3307232375
342 2 -11.7388756197 -8.8194330578 -10.3307232375
343 2 -14.4981703647 -7.4727016611 -10.3307232375
344 2 -16.0532419099 -4.5328906271 -8.0350069166
345 1 -15.2757061755 -5.8796220238 7.1831515943
346 1 -15.27570615 -8.8194330578 8.8868623766
347 1 -15.2757061755 -5.8796220238 11.1825786975
348 1 -12.7297550995 -7.3495275628 9.4788677775
349 1 -15.27570615 -8.8194330578 11.7745840984
350 1 -12.7297550995 -7.3495275628 13.4782948807
351 1 -15.27570615 -8.8194330578 1.9997135516
352 1 -15.2757061755 -5.8796220238 0.2960027693
353 1 -12.7297550995 -7.3495275628 2.5917189525
354 1 -15.2757061755 -5.8796220238 4.2954298725
355 1 -12.7297550995 -7.3495275628 6.5911460557
356 1 -15.27570615 -8.8194330578 4.8874352734
357 2 -13.5072908849 -5.7564479696 10.3307232375
358 2 -13.7206346303 -8.8194330578 10.3307232375
359 2 -11.9522193651 -8.6962589595 8.0350069166
360 2 -14.2848266192 -7.3495275628 8.0350069166
361 2 -11.9522193906 -6.0027961221 8.0350069166
362 2 -16.0532419099 -7.472701617 10.3307232375
363 2 -13.5072908849 -8.6962589595 1.1478580916
364 2 -11.1746836308 -7.3495275628 1.1478580916
365 2 -14.4981704156 -7.2263534646 12.6264395584
366 2 -16.8307776442 -5.8796220238 12.6264395584
367 2 -14.4981703901 -4.5328906271 12.6264395584
368 2 -13.5072908594 -6.0027961221 1.1478580916
369 2 -16.0532418844 -7.2263534646 5.7392907334
370 2 -13.7206346558 -5.8796220238 5.7392907334
371 2 -17.0441214151 -5.7564479696 3.4435744125
372 2 -11.7388756197 -8.8194330578 3.4435744125
373 2 -14.4981703647 -7.4727016611 3.4435744125
374 2 -16.0532419099 -4.5328906271 5.7392907334
375 1 -15.2757061755 -5.8796220238 14.0703004193
376 1 -12.7297550995 -7.3495275628 16.3660166025
377 2 -13.5072908849 -8.6962589595 14.9221557416
378 2 -11.1746836308 -7.3495275628 14.9221557416
379 2 -13.5072908594 -6.0027961221 14.9221557416
380 2 -11.7388756197 -8.8194330578 17.2178720625
381 1 -15.2757061245 -2.939811034 -14.0703004193
382 2 -17.0441214406 -2.8166369357 -14.9221557416
383 2 -17.0441214151 -0.1231740983 -14.9221557416
384 1 -17.8216572005 -1.4699054949 -6.5911460557
385 1 -17.821657175 -4.4097165289 -4.8874352734
386 1 -17.8216572005 -1.4699054949 -2.5917189525
387 1 -15.2757061245 -2.939811034 -4.2954298725
388 1 -17.821657175 -4.4097165289 -1.9997135516
389 1 -15.2757061245 -2.939811034 -0.2960027693
390 1 -17.821657175 -4.4097165289 -11.7745840984
391 1 -17.8216572005 -1.4699054949 -13.4782948807
392 1 -15.2757061245 -2.939811034 -11.1825786975
393 1 -17.8216572005 -1.4699054949 -9.4788677775
394 1 -15.2757061245 -2.939811034 -7.1831515943
395 1 -17.821657175 -4.4097165289 -8.8868623766
396 2 -16.0532419099 -1.3467314408 -3.4435744125
397 2 -16.2665856553 -4.4097165289 -3.4435744125
398 2 -14.4981703901 -4.2865424306 -5.7392907334
399 2 -16.8307776442 -2.939811034 -5.7392907334
400 2 -14.4981704156 -1.5930795932 -5.7392907334
401 2 -18.5991929349 -3.0629850881 -3.4435744125
402 2 -16.0532419099 -4.2865424306 -12.6264395584
403 2 -13.7206346558 -2.939811034 -12.6264395584
404 2 -17.0441214406 -2.8166369357 -1.1478580916
405 2 -19.3767286692 -1.4699054949 -1.1478580916
406 2 -17.0441214151 -0.1231740983 -1.1478580916
407 2 -16.0532418844 -1.5930795932 -12.6264395584
408 2 -18.5991929094 -2.8166369357 -8.0350069166
409 2 -16.2665856808 -1.4699054949 -8.0350069166
410 2 -19.5900724401 -1.3467314408 -10.3307232375
411 2 -14.2848266447 -4.4097165289 -10.3307232375
412 2 -17.0441213897 -3.0629851322 -10.3307232375
413 2 -18.5991929349 -0.1231740983 -8.0350069166
414 1 -17.8216572005 -1.4699054949 7.1831515943
415 1 -17.821657175 -4.4097165289 8.8868623766
416 1 -17.8216572005 -1.4699054949 11.1825786975
417 1 -15.2757061245 -2.939811034 9.4788677775
418 1 -17.821657175 -4.4097165289 11.7745840984
419 1 -15.2757061245 -2.939811034 13.4782948807
420 1 -17.821657175 -4.4097165289 1.9997135516
421 1 -17.8216572005 -1.4699054949 0.2960027693
422 1 -15.2757061245 -2.939811034 2.5917189525
423 1 -17.8216572005 -1.4699054949 4.2954298725
424 1 -15.2757061245 -2.939811034 6.5911460557
425 1 -17.821657175 -4.4097165289 4.8874352734
426 2 -16.0532419099 -1.3467314408 10.3307232375
427 2 -16.2665856553 -4.4097165289 10.3307232375
428 2 -14.4981703901 -4.2865424306 8.0350069166
429 2 -16.8307776442 -2.939811034 8.0350069166
430 2 -14.4981704156 -1.5930795932 8.0350069166
431 2 -18.5991929349 -3.0629850881 10.3307232375
432 2 -16.0532419099 -4.2865424306 1.1478580916
433 2 -13.7206346558 -2.939811034 1.1478580916
434 2 -17.0441214406 -2.8166369357 12.6264395584
435 2 -17.0441214151 -0.1231740983 12.6264395584
436 2 -16.0532418844 -1.5930795932 1.1478580916
437 2 -18.5991929094 -2.8166369357 5.7392907334
438 2 -16.2665856808 -1.4699054949 5.7392907334
439 2 -19.5900724401 -1.3467314408 3.4435744125
440 2 -14.2848266447 -4.4097165289 3.4435744125
441 2 -17.0441213897 -3.0629851322 3.4435744125
442 2 -18.5991929349 -0.1231740983 5.7392907334
443 1 -17.8216572005 -1.4699054949 14.0703004193
444 1 -15.2757061245 -2.939811034 16.3660166025
445 2 -16.0532419099 -4.2865424306 14.9221557416
446 2 -13.7206346558 -2.939811034 14.9221557416
447 2 -16.0532418844 -1.5930795932 14.9221557416
448 2 -14.2848266447 -4.4097165289 17.2178720625
449 1 -17.8216571495 1.4699054949 -14.0703004193
450 1 -20.3676082255 2.939811034 -6.5911460557
451 1 -20.3676082 0.0 -4.8874352734
452 1 -20.3676082255 2.939811034 -2.5917189525
453 1 -17.8216571495 1.4699054949 -4.2954298725
454 1 -20.3676082 0.0 -1.9997135516
455 1 -17.8216571495 1.4699054949 -0.2960027693
456 1 -17.8216571495 1.4699054949 -11.1825786975
457 1 -20.3676082255 2.939811034 -9.4788677775
458 1 -17.8216571495 1.4699054949 -7.1831515943
459 1 -20.3676082 0.0 -8.8868623766
460 2 -18.5991929349 3.0629850881 -3.4435744125
461 2 -18.8125366803 0.0 -3.4435744125
462 2 -17.0441214151 0.1231740983 -5.7392907334
463 2 -19.3767286692 1.4699054949 -5.7392907334
464 2 -17.0441214406 2.8166369357 -5.7392907334
465 2 -21.1451439599 1.3467314408 -3.4435744125
466 2 -18.5991929349 0.1231740983 -12.6264395584
467 2 -16.2665856808 1.4699054949 -12.6264395584
468 2 -19.5900724656 1.5930795932 -1.1478580916
469 2 -21.9226796942 2.939811034 -1.1478580916
470 2 -19.5900724401 4.2865424306 -1.1478580916
471 2 -18.5991929094 2.8166369357 -12.6264395584
472 2 -21.1451439344 1.5930795932 -8.0350069166
473 2 -18.8125367058 2.939811034 -8.0350069166
474 2 -16.8307776697 0.0 -10.3307232375
475 2 -19.5900724147 1.3467313967 -10.3307232375
476 1 -20.3676082255 2.939811034 7.1831515943
477 1 -20.3676082 0.0 8.8868623766
478 1 -17.8216571495 1.4699054949 9.4788677775
479 1 -17.8216571495 1.4699054949 13.4782948807
480 1 -20.3676082 0.0 1.9997135516
481 1 -20.3676082255 2.939811034 0.2960027693
482 1 -17.8216571495 1.4699054949 2.5917189525
483 1 -20.3676082255 2.939811034 4.2954298725
484 1 -17.8216571495 1.4699054949 6.5911460557
485 1 -20.3676082 0.0 4.8874352734
486 2 -18.5991929349 3.0629850881 10.3307232375
487 2 -18.8125366803 0.0 10.3307232375
488 2 -17.0441214151 0.1231740983 8.0350069166
489 2 -19.3767286692 1.4699054949 8.0350069166
490 2 -17.0441214406 2.8166369357 8.0350069166
491 2 -18.5991929349 0.1231740983 1.1478580916
492 2 -16.2665856808 1.4699054949 1.1478580916
493 2 -18.5991929094 2.8166369357 1.1478580916
494 2 -21.1451439344 1.5930795932 5.7392907334
495 2 -18.8125367058 2.939811034 5.7392907334
496 2 -22.1360234651 3.0629850881 3.4435744125
497 2 -16.8307776697 0.0 3.4435744125
498 2 -19.5900724147 1.3467313967 3.4435744125
499 2 -21.1451439599 4.2865424306 5.7392907334
500 2 -16.2665856808 1.4699054949 14.9221557416
501 1 -20.3676081745 5.8796220238 -4.2954298725
502 1 -20.3676081745 5.8796220238 -0.2960027693
503 1 -20.3676081745 5.8796220238 -7.1831515943
504 2 -21.1451439599 7.472701617 -3.4435744125
505 2 -21.3584877053 4.4097165289 -3.4435744125
506 2 -19.5900724401 4.5328906271 -5.7392907334
507 2 -19.5900724656 7.2263534646 -5.7392907334
508 2 -19.3767286947 4.4097165289 -10.3307232375
509 1 -20.3676081745 5.8796220238 2.5917189525
510 1 -20.3676081745 5.8796220238 6.5911460557
511 2 -19.5900724401 4.5328906271 8.0350069166
512 2 -19.5900724656 7.2263534646 8.0350069166
513 2 -21.1451439599 4.5328906271 1.1478580916
514 2 -18.8125367058 5.8796220238 1.1478580916
515 2 -21.1451439344 7.2263534646 1.1478580916
516 2 -19.3767286947 4.4097165289 3.4435744125
517 1 -2.5459510505 -19.1087716105 -6.5911460557
518 1 -2.545951025 -22.0485826444 -4.8874352734
519 1 -2.5459510505 -19.1087716105 -2.5917189525
520 1 2.5459506059e-08 -20.5786771495 -4.2954298725
521 1 -2.545951025 -22.0485826444 -1.9997135516
522 1 2.5459506059e-08 -20.5786771495 -0.2960027693
523 1 -2.5459510505 -19.1087716105 -9.4788677775
524 1 2.5459506059e-08 -20.5786771495 -7.1831515943
525 2 -0.7775357599 -18.9855975563 -3.4435744125
526 2 -0.9908795053 -22.0485826444 -3.4435744125
527 2 0.7775357599 -21.9254085461 -5.7392907334
528 2 -1.5550714942 -20.5786771495 -5.7392907334
529 2 0.7775357344 -19.2319457087 -5.7392907334
530 2 -3.3234867849 -20.7018512036 -3.4435744125
531 2 -1.7684152906 -20.4555030512 -1.1478580916
532 2 -4.1010225192 -19.1087716105 -1.1478580916
533 2 -1.7684152651 -17.7620402138 -1.1478580916
534 2 -3.3234867594 -20.4555030512 -8.0350069166
535 2 -0.9908795308 -19.1087716105 -8.0350069166
536 2 -4.3143662901 -18.9855975563 -10.3307232375
537 2 -3.3234867849 -17.7620402138 -8.0350069166
538 1 -2.5459510505 -19.1087716105 7.1831515943
539 1 -2.5459510505 -19.1087716105 11.1825786975
540 1 2.5459506059e-08 -20.5786771495 9.4788677775
541 1 -2.545951025 -22.0485826444 1.9997135516
542 1 -2.5459510505 -19.1087716105 0.2960027693
543 1 2.5459506059e-08 -20.5786771495 2.5917189525
544 1 -2.5459510505 -19.1087716105 4.2954298725
545 1 2.5459506059e-08 -20.5786771495 6.5911460557
546 1 -2.545951025 -22.0485826444 4.8874352734
547 2 -0.7775357599 -18.9855975563 10.3307232375
548 2 -1.5550714942 -20.5786771495 8.0350069166
549 2 0.7775357344 -19.2319457087 8.0350069166
550 2 -0.7775357599 -21.9254085461 1.1478580916
551 2 1.5550714942 -20.5786771495 1.1478580916
552 2 -1.7684152651 -17.7620402138 12.6264395584
553 2 -0.7775357344 -19.2319457087 1.1478580916
554 2 -3.3234867594 -20.4555030512 5.7392907334
555 2 -0.9908795308 -19.1087716105 5.7392907334
556 2 -4.3143662901 -18.9855975563 3.4435744125
557 2 0.9908795053 -22.0485826444 3.4435744125
558 2 -1.7684152397 -20.7018512477 3.4435744125
559 2 -3.3234867849 -17.7620402138 5.7392907334
560 1 -5.0919020755 -14.6990550816 -16.3660166025
561 1 -2.5459509995 -16.1689606206 -14.0703004193
562 2 -3.3234867849 -14.5758810274 -17.2178720625
563 2 -4.3143663156 -16.0457865223 -14.9221557416
564 2 -6.6469735442 -14.6990550816 -14.9221557416
565 2 -4.3143662901 -13.3523236849 -14.9221557416
566 1 -5.0919020755 -14.6990550816 -6.5911460557
567 1 -5.09190205 -17.6388661155 -4.8874352734
568 1 -5.0919020755 -14.6990550816 -2.5917189525
569 1 -2.5459509995 -16.1689606206 -4.2954298725
570 1 -5.09190205 -17.6388661155 -1.9997135516
571 1 -2.5459509995 -16.1689606206 -0.2960027693
572 1 -5.09190205 -17.6388661155 -11.7745840984
573 1 -5.0919020755 -14.6990550816 -13.4782948807
574 1 -2.5459509995 -16.1689606206 -11.1825786975
575 1 -5.0919020755 -14.6990550816 -9.4788677775
576 1 -2.5459509995 -16.1689606206 -7.1831515943
577 1 -5.09190205 -17.6388661155 -8.8868623766
578 2 -3.3234867849 -14.5758810274 -3.4435744125
579 2 -3.5368305303 -17.6388661155 -3.4435744125
580 2 -1.7684152651 -17.5156920173 -5.7392907334
581 2 -4.1010225192 -16.1689606206 -5.7392907334
582 2 -1.7684152906 -14.8222291798 -5.7392907334
583 2 -5.8694378099 -16.2921346748 -3.4435744125
584 2 -3.3234867849 -17.5156920173 -12.6264395584
585 2 -0.9908795308 -16.1689606206 -12.6264395584
586 2 -4.3143663156 -16.0457865223 -1.1478580916
587 2 -6.6469735442 -14.6990550816 -1.1478580916
588 2 -4.3143662901 -13.3523236849 -1.1478580916
589 2 -3.3234867594 -14.8222291798 -12.6264395584
590 2 -5.8694377844 -16.0457865223 -8.0350069166
591 2 -3.5368305558 -14.6990550816 -8.0350069166
592 2 -6.8603173151 -14.5758810274 -10.3307232375
593 2 -1.5550715197 -17.6388661155 -10.3307232375
594 2 -4.3143662647 -16.2921347189 -10.3307232375
595 2 -5.8694378099 -13.3523236849 -8.0350069166
596 1 -5.0919020755 -14.6990550816 7.1831515943
597 1 -5.09190205 -17.6388661155 8.8868623766
598 1 -5.0919020755 -14.6990550816 11.1825786975
599 1 -2.5459509995 -16.1689606206 9.4788677775
600 1 -5.09190205 -17.6388661155 11.7745840984
601 1 -2.5459509995 -16.1689606206 13.4782948807
602 1 -5.09190205 -17.6388661155 1.9997135516
603 1 -5.0919020755 -14.6990550816 0.2960027693
604 1 -2.5459509995 -16.1689606206 2.5917189525
605 1 -5.0919020755 -14.6990550816 4.2954298725
606 1 -2.5459509995 -16.1689606206 6.5911460557
607 1 -5.09190205 -17.6388661155 4.8874352734
608 2 -3.3234867849 -14.5758810274 10.3307232375
609 2 -3.5368305303 -17.6388661155 10.3307232375
610 2 -1.7684152651 -17.5156920173 8.0350069166
611 2 -4.1010225192 -16.1689606206 8.0350069166
612 2 -1.7684152906 -14.8222291798 8.0350069166
613 2 -5.8694378099 -16.2921346748 10.3307232375
614 2 -3.3234867849 -17.5156920173 1.1478580916
615 2 -0.9908795308 -16.1689606206 1.1478580916
616 2 -4.3143663156 -16.0457865223 12.6264395584
617 2 -6.6469735442 -14.6990550816 12.6264395584