ITEM: TIMESTEP
0
ITEM: NUMBER OF ATOMS
17660
ITEM: BOX BOUNDS pp pp pp
-28.0 134.0
-28.0 28.0
-28.0 28.0
ITEM: ATOMS type x y z ChargeDensity
2 -9.7358683635 -25.2488712454 -3.0583003395 -12.0
2 -10.9464812701 -24.214920214 -5.3418523633 14.0
2 -8.2431594623 -25.1922319959 -0.7092877124 5.0
2 0.982410414 -27.6584946265 0.6225934788 0.0
2 -4.5932675481 -26.7663281999 -3.6161469825 4.0
2 -5.7595711624 -26.6100731186 -1.1933258406 0.0
2 -1.889945753 -27.7436399546 1.0164177096 8.0
1 -14.6189285245 -22.6178990724 0.957807133 -8.0
1 -11.1553230526 -23.6177558482 2.6896098689 -11.0
1 -11.357804452 -23.3623745019 -0.6925346762 -15.0
1 -7.8941989801 -24.3622312777 1.0392680597 -19.0
1 -17.3222502941 -21.6405872957 -3.6747575973 -2.0
1 -17.1197688947 -21.895968642 -0.2926130521 -6.0
1 -13.8586448222 -22.6404440714 -1.9429548613 -9.0
2 -11.008843876 -22.5323738402 1.0560211937 4.0
2 -11.1155157487 -25.2773772895 -0.3154635413 4.0
2 -12.2194567699 -23.8310300391 -2.5742622679 2.0
2 -13.385760397 -23.6747750071 -0.151441129 4.0
2 -12.2194567826 -21.4984228088 -1.2275308301 14.0
2 -17.7951347448 -20.6062563821 -5.4662712914 8.0
2 -9.5161349876 -24.808341843 2.0583024212 0.0
2 -10.6824386019 -24.6520867618 4.4811235631 3.0
2 -9.5161349748 -22.4757345906 3.4050338208 14.0
2 -15.0918129497 -21.5835681368 -0.8337065993 14.0
2 -16.2581165768 -21.4273131048 1.5891145396 10.0
1 -2.6900368403 -26.0614734849 6.9222529751 -13.0
1 0.5710872322 -26.8059489144 5.2719111659 -17.0
1 -8.6544826824 -24.3396862787 3.940030054 -11.0
1 -5.3933586099 -25.0841617082 2.2896882448 -17.0
1 -5.1908772105 -25.3395430545 5.67183279 -8.0
1 -1.929753138 -26.0840184839 4.0214909808 -15.0
2 0.9200478082 -25.9759482527 7.0204670358 -1.0
2 -0.2905650857 -27.2746044516 3.3901835742 -3.0
2 -1.4568687128 -27.1183494196 5.8130047131 -5.0
2 -0.2905650985 -24.9419972213 4.736915012 8.0
2 -7.0325466877 -26.2261829657 1.5742642929 -3.0
2 -5.8662430606 -24.0498307946 0.4981745507 6.0
2 2.4127567094 -25.9193090031 9.3694796629 9.0
2 -7.0325466749 -23.8935757133 2.9209956926 5.0
2 -3.1629212655 -25.0271425493 5.1307392428 13.0
2 -6.812813299 -25.7856535905 6.6908670125 3.0
2 -4.1601904013 -26.1410376721 1.1804401218 -10.0
2 -5.5398377738 -26.1695437434 3.9232768789 9.0
2 -4.3292248926 -24.8708875173 7.5535603817 7.0
1 -21.0960661768 -18.2021594599 -0.8108562492 -9.0
1 -15.891904037 -19.9014016671 5.0721286662 -10.0
1 -14.4164472061 -22.8732803894 4.3399515392 -8.0
1 -12.4282985651 -20.9012584429 6.8039314021 -9.0
1 -12.6307799645 -20.6458770966 3.421786857 -11.0
1 -11.9156068359 -23.5952108199 5.5903717243 -5.0
1 -9.1671744926 -21.6457338724 5.1535895929 -13.0
1 -18.5952258066 -18.9240898904 0.4395639359 -11.0
1 -18.3927444072 -19.1794712367 3.8217084811 -15.0
1 -15.1316203347 -19.9239466662 2.1713666719 -12.0
2 -12.2818193885 -19.8158764349 5.1703427269 11.0
2 -12.3884912612 -22.5608798843 3.7988579919 12.0
2 -13.4924322824 -21.1145326338 1.5400592653 8.0
2 -14.6587359095 -20.9582776018 3.9628804042 6.0
2 -13.4924322951 -18.7819254035 2.8867907031 12.0
2 -13.554794901 -22.4046248251 6.221679172 11.0
2 -19.0681102573 -17.8897589768 -1.3519497582 17.0
2 -10.7891105001 -22.0918444377 6.1726239544 11.0
2 -11.9554141144 -21.9355893565 8.5954450963 7.0
2 -10.7891104873 -19.7592371854 7.519355354 15.0
2 -20.2344138716 -17.7335038956 1.0708713837 10.0
2 -17.5310920765 -21.0434229298 4.356704635 5.0
2 -16.3647884622 -18.8670707315 3.2806149339 16.0
2 -17.362057598 -19.9809658543 -0.6696841871 10.0
2 -18.7417049705 -20.0094719256 2.07315257 11.0
2 -17.5310920893 -18.7108156995 5.7034360728 7.0
1 -3.9630123528 -23.3449760796 11.0365745083 -10.0
1 -0.4994068809 -24.3448328554 12.7683772442 -5.0
1 -0.7018882803 -24.0894515091 9.3862326991 -14.0
1 2.7617171916 -25.0893082849 11.118035435 -10.0
1 -8.4520013641 -24.5950675957 7.3221744602 -9.0
1 -9.9274581949 -21.6231888734 8.0543515872 -9.0
1 -6.6663341224 -22.3676643029 6.404009778 -13.0
1 -6.463852723 -22.6230456492 9.7861543232 -9.0
1 -3.2027286505 -23.3675210787 8.135812514 -14.0
1 -5.9511609939 -25.3169980261 8.5725946453 -8.0
2 -0.3529277043 -23.2594508474 11.134788569 4.0
2 -0.459599577 -26.0044542968 9.763303834 16.0
2 -1.5635405982 -24.5581070463 7.5045051074 7.0
2 -2.7298442253 -24.4018520143 9.9273262463 4.0
2 -1.563540611 -22.225499816 8.8512365452 11.0
2 -8.3055222002 -23.5096855604 5.6885858261 4.0
2 -7.1392185731 -21.3333333893 4.6124960839 12.0
2 1.1397811969 -23.2028115979 13.4838011961 15.0
2 -8.3055221874 -21.1770783081 7.0353172258 10.0
2 -5.6022003924 -24.4869973423 10.321150477 6.0
2 -4.435896778 -22.310645144 9.245060776 12.0
2 -8.0857888115 -23.0691561852 10.8051885457 11.0
2 -5.4331659138 -23.4245402668 5.294761655 7.0
2 -6.8128132863 -23.4530463381 8.0375984121 18.0
2 -5.6022004051 -22.154390112 11.6678819149 11.0
2 4.7896731111 -24.7769078018 10.576941926 11.0
1 -22.3690416893 -15.4856620546 3.303465284 -10.0
1 -17.1648795495 -17.1849042619 9.1864501994 -8.0
1 -15.6894227186 -20.1567829841 8.4542730724 -9.0
1 -13.7012740776 -18.1847610376 10.9182529353 -9.0
1 -13.903755477 -17.9293796913 7.5361083902 -13.0
1 -13.1885823484 -20.8787134146 9.7046932575 -7.0
1 -10.4401500051 -18.9292364671 9.2679111261 -13.0
1 -19.8682013191 -16.2075924851 4.5538854691 -12.0
1 -19.6657199197 -16.4629738314 7.9360300143 -13.0
1 -16.4045958472 -17.2074492609 6.2856882051 -11.0
1 -19.1530281905 -19.1569262083 6.7224703364 -6.0
2 -13.554794901 -17.0993790296 9.2846642601 11.0
2 -13.6614667737 -19.844382479 7.9131795251 16.0
2 -14.7654077949 -18.3980352285 5.6543807985 10.0
2 -15.931711422 -18.2417801965 8.0772019374 7.0
2 -14.7654078076 -16.0654279982 7.0011122363 12.0
2 -14.8277704135 -19.6881274198 10.3360007052 11.0
2 -21.5073893969 -17.3496137427 3.8384615172 5.0
2 -20.3410857698 -15.1732615715 2.762371775 17.0
2 -12.0620860126 -19.3753470325 10.2869454876 11.0
2 -13.2283896269 -19.2190919512 12.7097666295 7.0
2 -12.0620859998 -17.0427397801 11.6336768872 15.0
2 -21.5073893841 -15.0170064903 5.1851929168 10.0
2 -18.804067589 -18.3269255246 8.4710261681 5.0
2 -17.6377639747 -16.1505733263 7.394936467 16.0
2 -18.6350331105 -17.264468449 3.4446373461 5.0
2 -20.014680483 -17.2929745203 6.1874741032 9.0
2 -18.8040676018 -15.9943182942 9.817757606 11.0
1 -5.2359878653 -20.6284786744 15.1508960415 -10.0
1 -3.7605310345 -23.6003573966 14.4187189144 -4.0
1 -1.7723823934 -21.6283354501 16.8826987774 -7.0
1 -1.9748637928 -21.3729541038 13.5005542323 -8.0
1 1.4887416791 -22.3728108796 15.2323569682 -6.0
1 -9.7249768766 -21.8785701904 11.4364959934 -9.0
1 -11.2004337074 -18.9066914681 12.1686731204 -9.0
1 -7.9393096349 -19.6511668976 10.5183313112 -13.0
1 -7.7368282355 -19.9065482439 13.9004758564 -9.0
1 -4.475704163 -20.6510236734 12.2501340472 -13.0
1 -7.2241365064 -22.6005006208 12.6869161785 -7.0
2 -1.6259032168 -20.5429534421 15.2491101022 5.0
2 -1.7325750895 -23.2879568915 13.8776253672 18.0
2 -2.8365161107 -21.841609641 11.6188266406 11.0
2 -4.0028197378 -21.685354609 14.0416477795 5.0
2 -2.8365161235 -19.5090024107 12.9655580784 14.0
2 -9.5784977127 -20.7931881552 9.8029073593 7.0
2 -8.4121940856 -18.616835984 8.7268176171 12.0
2 -0.1331943156 -20.4863141926 17.5981227293 12.0
2 -9.5784976999 -18.4605809028 11.1496387589 10.0
2 -6.8751759049 -21.7704999371 14.4354720102 6.0
2 -5.7088722905 -19.5941477388 13.3593823091 15.0
2 -9.358764324 -20.3526587799 14.9195100789 11.0
2 -6.7061414263 -20.7080428615 9.4090831882 11.0
2 -8.0857887988 -20.7365489328 12.1519199453 16.0
2 -6.8751759176 -19.4378927067 15.782203448 8.0
2 3.5166975986 -22.0604103965 14.6912634592 15.0
2 2.3503939842 -21.9041553153 17.114084601 7.0
1 -23.6420172018 -12.7691646494 7.4177868172 -11.0
1 -18.437855062 -14.4684068566 13.3007717326 -12.0
1 -16.9623982311 -17.4402855788 12.5685946055 -10.0
1 -14.9742495901 -15.4682636324 15.0325744685 -13.0
1 -15.1767309895 -15.2128822861 11.6504299234 -13.0
1 -14.4615578609 -18.1622160093 13.8190147906 -7.0
1 -11.7131255176 -16.2127390619 13.3822326593 -13.0
1 -21.1411768316 -13.4910950798 8.6682070023 -11.0
1 -20.9386954322 -13.7464764261 12.0503515475 -10.0
1 -17.6775713597 -14.4909518556 10.4000097383 -12.0
2 -14.8277704135 -14.3828816243 13.3989857933 5.0
2 -14.9344422862 -17.1278850737 12.0275010583 16.0
2 -16.0383833074 -15.6815378233 9.7687023317 9.0
2 -17.2046869345 -15.5252827912 12.1915234706 3.0
2 -16.0383833201 -13.3489305929 11.1154337695 14.0
2 -16.100745926 -16.9716300145 14.4503222384 7.0
2 -21.6140612823 -12.4567641663 6.8766933082 16.0
2 -13.3350615251 -16.6588496272 14.4012670208 8.0
2 -14.5013651394 -16.5025945459 16.8240881626 -4.0
2 -13.3350615123 -14.3262423748 15.7479984204 5.0
2 -22.7803648966 -12.300509085 9.29951445 6.0
2 -18.9107394872 -13.434075921 11.5092580002 17.0
2 -19.908008623 -14.5479710438 7.5589588793 5.0
2 -21.2876559955 -14.576477115 10.3017956364 10.0
2 -20.0770431143 -13.2778208889 13.9320791391 3.0
1 -6.5089633778 -17.9119812691 19.2652175747 -11.0
1 -3.2478393053 -18.6564566986 17.6148757655 -10.0
1 0.2157661666 -19.6563134744 19.3466785014 -8.0
1 -10.9979523891 -19.1620727851 15.5508175266 -7.0
1 -12.4734092199 -16.1901940628 16.2829946536 -13.0
1 -9.2122851474 -16.9346694923 14.6326528444 -11.0
1 -9.009803748 -17.1900508386 18.0147973896 -11.0
1 -5.7486796755 -17.9345262681 16.3644555804 -16.0
1 -8.4971120189 -19.8840032156 16.8012377117 -8.0
2 -2.8988787293 -17.8264560368 19.3634316354 4.0
2 -3.005550602 -20.5714594862 17.9919469004 17.0
2 -4.1094916232 -19.1251122358 15.7331481738 11.0
2 -5.2757952503 -18.9688572037 18.1559693127 1.0
2 -4.109491636 -16.7925050054 17.0798796116 8.0
2 -10.8514732252 -18.0766907499 13.9172288925 7.0
2 -9.6851695981 -15.9003385788 12.8411391503 12.0
2 -10.8514732124 -15.7440834975 15.2639602921 9.0
2 -8.1481514174 -19.0540025318 18.5497935434 4.0
2 -6.981847803 -16.8776503335 17.4737038423 13.0
2 -7.9791169388 -17.9915454563 13.5234047214 11.0
2 -9.3587643113 -18.0200515275 16.2662414785 12.0
2 -8.1481514301 -16.7213953014 19.8965249812 4.0
2 2.2437220861 -19.3439129913 18.8055849924 16.0
1 -16.449706502 -12.4963848808 15.7647514566 -21.0
1 -12.9861010301 -13.4962416566 17.4965541925 -19.0
1 -22.4141523441 -10.7745976745 12.7825285355 -10.0
1 -18.9505468722 -11.7744544503 14.5143312715 -13.0
2 -16.100745926 -11.666384219 17.5133073265 -6.0
2 -16.2074177987 -14.4113876684 16.1418225915 8.0
2 -17.3113588199 -12.965040418 13.8830238649 7.0
2 -18.477662447 -12.8087853859 16.3058450038 -8.0
2 -17.3113588326 -10.6324331876 15.2297553027 3.0
2 -22.8870367948 -9.740266761 10.9910148414 12.0
2 -14.6080370376 -13.9423522219 18.515588554 -2.0
2 -14.6080370248 -11.6097449695 19.8623199536 -2.0
2 -20.1837149997 -10.7175785157 15.6235795334 11.0
2 -21.1809841355 -11.8314736385 11.6732804125 1.0
1 -4.5208148178 -15.9399592933 21.7291972987 -10.0
1 -10.4852606599 -14.218172087 18.7469743776 -17.0
1 -7.021655188 -15.2180288628 20.4787771136 -11.0
2 -5.3824671357 -16.4086148305 19.847469707 9.0
2 -5.3824671485 -14.0760076001 21.1942011448 10.0
2 -12.1244487377 -15.3601933446 18.0315504257 -4.0
2 -10.9581451106 -13.1838411735 16.9554606835 8.0
2 -12.1244487249 -13.0275860922 19.3782818253 -6.0
2 -8.2548233155 -14.1611529282 21.5880253755 14.0
2 -9.2520924513 -15.275048051 17.6377262546 4.0
2 -10.6317398238 -15.3035541222 20.3805630117 4.0
2 -18.5843343324 -10.2485430127 17.9973453981 2.0
2 -12.2311206231 -10.4673437682 21.0697822167 6.0
2 -10.5250679638 -12.5585506457 21.7520477878 -12.0
1 -10.800001987 -23.1295382133 -6.9754409377 -11.0
1 -7.3363965151 -24.129394989 -5.2436382018 -17.0
1 -7.5388779145 -23.8740136427 -8.6257827469 -11.0
1 -4.0752724426 -24.8738704185 -6.893980011 -13.0
1 -13.3008423572 -22.4076077828 -8.2258611228 -10.0
1 -10.0397182847 -23.1520832123 -9.876202932 -11.0
2 -7.1899173385 -23.044012981 -6.877226877 4.0
2 -8.4005302324 -24.3426691799 -10.5075103386 4.0
2 -9.5668338595 -24.1864141479 -8.0846891997 4.0
2 -8.4005302451 -22.0100619496 -9.1607789008 13.0
2 -8.462892851 -25.6327613712 -5.8258904319 4.0
2 -5.6972084501 -25.3199809839 -5.8749456495 -6.0
2 -6.8635120644 -25.1637259026 -3.4521245076 -5.0
2 -5.6972084373 -22.9873737315 -4.5282142499 8.0
2 -11.2728864122 -22.0952072776 -8.76695467 9.0
2 -12.4391900393 -21.9389522456 -6.3441335311 10.0
1 1.1288896972 -26.5731126258 -1.0109950956 -14.0
1 4.5924951691 -27.5729694015 0.7208076403 -21.0
1 4.3900137697 -27.3175880552 -2.6613369048 -17.0
1 -4.8355561449 -24.8513254195 -3.9932180167 -16.0
1 -1.5744320724 -25.595800849 -5.6435598259 -15.0
1 -1.371950673 -25.8511821953 -2.2614152807 -19.0
1 1.8891733995 -26.5956576248 -3.9117570899 -15.0
2 4.7389743457 -26.4875873935 -0.9127810349 -2.0
2 2.3620578247 -27.6299885604 -2.1202433576 -7.0
2 3.528361439 -25.4536363621 -3.1963330587 10.0
2 -3.2136201502 -26.7378221066 -6.3589837778 -2.0
2 -2.0473165231 -24.5614699354 -7.43507352 8.0
2 6.2316832469 -26.430948144 1.4362315922 1.0
2 -3.2136201374 -24.4052148542 -5.0122523781 5.0
2 -0.5102983424 -27.7151338884 -1.7264191268 -7.0
2 0.656005272 -25.5387816901 -2.8025088279 8.0
2 -2.9938867615 -26.2972927313 -1.2423810582 -10.0
2 -0.3412638638 -26.6526768129 -6.7528079488 0.0
2 -1.7209112363 -26.6811828842 -4.0099711918 1.0
2 -0.5102983551 -25.3825266581 -0.379687689 -1.0
1 -17.2771396393 -18.7137986008 -8.7441043199 -14.0
2 -20.3917845352 -16.8839411632 -8.7273511859 1.0
2 -18.899075634 -16.8273019137 -6.3783385588 15.0
1 -12.0729774995 -20.413040808 -2.8611194045 -17.0
1 -10.5975206686 -23.3849195302 -3.5932965315 -17.0
1 -8.6093720276 -21.4128975838 -1.1293166686 -21.0
1 -8.811853427 -21.1575162375 -4.5114612137 -21.0
1 -8.0966802984 -24.1068499607 -2.3428763464 -23.0
1 -5.3482479551 -22.1573730133 -2.7796584778 -21.0
1 -18.0374233416 -18.6912536017 -5.8433423256 -10.0
1 -14.7762992691 -19.4357290312 -7.4936841348 -11.0
1 -14.5738178697 -19.6911103775 -4.1115395896 -12.0
1 -11.3126937972 -20.435585807 -5.7618813988 -15.0
1 -14.0611261405 -22.3850627545 -5.3250992675 -8.0
2 -8.462892851 -20.3275155757 -2.7629053438 12.0
2 -8.5695647237 -23.0725190251 -4.1343900788 3.0
2 -9.6735057449 -21.6261717747 -6.3931888054 5.0
2 -10.839809372 -21.4699167426 -3.9703676665 7.0
2 -9.6735057576 -19.2935645443 -5.0464573676 12.0
2 -9.7358683635 -22.9162639659 -1.7115688987 3.0
2 -16.4154873469 -20.5777502888 -8.2091080867 2.0
2 -15.2491837198 -18.4013981177 -9.2851978289 13.0
2 -6.9701839626 -22.6034835786 -1.7606241163 3.0
2 -8.1364875769 -22.4472284973 0.6621970256 3.0
2 -6.9701839498 -20.2708763262 -0.4138927167 12.0
2 -16.4154873341 -18.2451430364 -6.862376687 9.0
2 -13.712165539 -21.5550620707 -3.5765434357 7.0
2 -12.5458619247 -19.3787098724 -4.6526331368 16.0
2 -16.1957539582 -20.1372209135 -3.0925053671 10.0
2 -13.5431310605 -20.4926049952 -8.6029322578 10.0
2 -14.922778433 -20.5211110664 -5.8600955007 20.0
2 -13.7121655518 -19.2224548403 -2.2298119979 14.0
1 -0.1440858153 -23.8566152205 3.1033264376 -21.0
1 1.3313710155 -26.8284939427 2.3711493106 -17.0
1 3.3195196566 -24.8564719963 4.8351291735 -21.0
1 3.1170382572 -24.60109065 1.4529846284 -22.0
1 6.5806437291 -25.6009474258 3.1847873643 -20.0
1 -4.6330748266 -25.1067067365 -0.6110736105 -25.0
1 -6.1085316574 -22.1348280142 0.1211035165 -21.0
1 -2.8474075849 -22.8793034437 -1.5292382927 -21.0
1 -2.6449261855 -23.13468479 1.8529062525 -19.0
1 0.616197887 -23.8791602195 0.2025644433 -27.0
1 -2.1322344564 -25.828637167 0.6393465746 -16.0
2 3.4659988332 -23.7710899882 3.2015404983 9.0
2 3.3593269605 -26.5160934376 1.8300557633 4.0
2 2.2553859393 -25.0697461872 -0.4287429633 -1.0
2 1.0890823122 -24.9134911551 1.9940781756 -8.0
2 2.2553859265 -22.7371389568 0.9179884745 12.0
2 2.1930233207 -26.3598383784 4.2528769434 0.0
2 -4.4865956627 -24.0213247013 -2.2446622446 3.0
2 -3.3202920356 -21.8449725302 -3.3207519868 12.0
2 4.9587077216 -26.0470579911 4.2038217258 -4.0
2 3.7924041073 -25.8908029098 6.6266428677 -10.0
2 4.9587077344 -23.7144507387 5.5505531254 9.0
2 -4.4865956499 -21.6887174489 -0.8979308449 12.0
2 -1.7832738549 -24.9986364832 2.3879024064 5.0
2 -0.6169702405 -22.8222842849 1.3118127053 12.0
2 -4.266862274 -23.580795326 2.871940475 7.0
2 -1.6142393763 -23.9361794077 -2.6384864157 1.0
2 -2.9938867488 -23.9646854789 0.1043503414 7.0
2 -1.7832738676 -22.6660292528 3.7346338442 12.0
1 5.8203600268 -25.5784024267 6.0855493586 -24.0
2 8.6085996486 -25.2885469427 2.6436938553 6.0
2 7.4422960342 -25.1322918614 5.0665149972 3.0
1 -21.8112392243 -15.252825766 -2.9794409775 -8.0
1 -22.0137206237 -14.9974444197 -6.3615855226 -9.0
1 -18.5501151518 -15.9973011955 -4.6297827867 -15.0
2 -21.6647600477 -14.1674437579 -4.6130296527 5.0
2 -22.8753729543 -13.1334927265 -6.8965816765 12.0
2 -20.1720511592 -16.4434117608 -3.6107484252 9.0
2 -21.3383547736 -16.2871566796 -1.1879272833 10.0
2 -20.1720511465 -14.1108045084 -2.2640170256 17.0
1 -13.345953012 -17.6965434027 1.2532021287 -21.0
1 -11.8704961811 -20.668422125 0.5210250017 -17.0
1 -9.8823475401 -18.6964001785 2.9850048646 -21.0
1 -10.0848289395 -18.4410188322 -0.3971396805 -21.0
1 -9.3696558109 -21.3903525554 1.7714451868 -19.0
1 -6.6212234676 -19.440875608 1.3346630554 -21.0
1 -17.8349420232 -18.9466349187 -2.4611979194 -10.0
1 -19.3103988541 -15.9747561965 -1.7290207924 -10.0
1 -16.0492747816 -16.7192316259 -3.3793626016 -19.0
1 -15.8467933822 -16.9746129722 0.0027819436 -21.0
1 -12.5856693097 -17.7190884017 -1.6475598656 -21.0
1 -15.334101653 -19.6685653492 -1.2107777343 -9.0
2 -9.7358683635 -17.6110181704 1.3514161894 12.0
2 -9.8425402362 -20.3560216198 -0.0200685456 12.0
2 -10.9464812574 -18.9096743694 -2.2788672722 12.0
2 -12.1127848845 -18.7534193373 0.1439538667 12.0
2 -10.9464812701 -16.577067139 -0.9321358344 12.0
2 -11.008843876 -20.1997665606 2.4027526345 12.0
2 -17.6884628594 -17.8612528835 -4.0947865535 7.0
2 -16.5221592323 -15.6849007124 -5.1708762957 16.0
2 -8.2431594751 -19.8869861733 2.3536974169 12.0
2 -9.4094630894 -19.7307310921 4.7765185588 12.0
2 -8.2431594623 -17.5543789209 3.7004288165 12.0
2 -17.6884628466 -15.5286456311 -2.7480551538 11.0
2 -14.9851410515 -18.8385646654 0.5377780975 9.0
2 -13.8188374372 -16.6622124671 -0.5383116036 12.0
2 -17.4687294707 -17.4207235083 1.0218161661 5.0
2 -14.816106573 -17.7761075899 -4.4886107246 9.0
2 -16.1957539455 -17.8046136611 -1.7457739675 16.0
2 -14.9851410643 -16.5059574351 1.8845095353 12.0
1 -1.4170613278 -21.1401178152 7.2176479708 -21.0
1 0.058395503 -24.1119965375 6.4854708438 -18.0
1 2.0465441441 -22.139974591 8.9494507067 -19.0
1 1.8440627447 -21.8845932447 5.5673061616 -21.0
1 2.5592358732 -24.8339269679 7.7358910289 -17.0
1 5.3076682166 -22.8844500205 7.2991088975 -20.0
1 -5.9060503391 -22.3902093312 3.5032479227 -19.0
1 -7.3815071699 -19.418330609 4.2354250497 -21.0
1 -4.1203830974 -20.1628060384 2.5850832405 -21.0
1 -3.917901698 -20.4181873847 5.9672277857 -21.0
1 -0.6567776255 -21.1626628142 4.3168859765 -21.0
1 -3.4052099689 -23.1121397617 4.7536681078 -17.0
2 2.1930233207 -21.0545925829 7.3158620315 12.0
2 2.086351448 -23.7995960323 5.9443772965 5.0
2 0.9824104268 -22.3532487819 3.6855785699 12.0
2 -0.1838932003 -22.1969937498 6.1083997088 12.0
2 0.982410414 -20.0206415515 5.0323100077 12.0
2 0.9200478082 -23.6433409731 8.3671984766 9.0
2 -5.7595711752 -21.304827296 1.8696592886 12.0
2 -4.5932675481 -19.1284751249 0.7935695464 12.0
2 3.6857322091 -23.3305605858 8.318143259 6.0
2 2.5194285948 -23.1743055046 10.7409644009 2.0
2 3.6857322219 -20.9979533334 9.6648746586 14.0
2 -5.7595711624 -18.9722200436 3.2163906883 12.0
2 -3.0562493674 -22.2821390779 6.5022239395 12.0
2 -1.889945753 -20.1057868796 5.4261342385 12.0
2 -5.5398377865 -20.8642979208 6.9862620082 12.0
2 -2.8872148888 -21.2196820024 1.4758351175 12.0
2 -4.2668622613 -21.2481880736 4.2186718746 12.0
2 -3.0562493801 -19.9495318476 7.8489553774 12.0
1 4.5473845143 -22.8619050215 10.1998708918 -15.0
1 7.8085085868 -23.6063804509 8.5495290826 -13.0
1 8.0109899862 -23.8617617972 11.9316736278 -11.0
2 6.169320509 -24.7484017085 7.8341051307 -3.0
2 7.3356241361 -22.5720495374 6.7580153885 5.0
2 6.1693205217 -22.4157944561 9.1808365303 14.0
2 9.0416767954 -24.6632564149 7.4402809596 2.0
2 7.6620294229 -24.6917624861 10.1831177167 14.0
1 -23.0842147368 -12.5363283607 1.1348805557 -9.0
1 -23.2866961362 -12.2809470144 -2.2472639894 -11.0
1 -22.5715230076 -15.2302807377 -0.0786791221 -6.0
1 -19.8230906643 -13.2808037902 -0.5154612535 -17.0
2 -22.9377355602 -11.4509463527 -0.4987081195 7.0
2 -23.0444074329 -14.195949802 -1.8701928545 11.0
2 -24.1483484541 -12.7496025516 -4.1289915811 5.0
2 -24.1483484668 -10.4169953213 -2.7822601433 8.0
2 -21.4450266717 -13.7269143555 0.503573108 10.0
2 -22.6113302861 -13.5706592743 2.9263942499 9.0
2 -21.445026659 -11.3943071031 1.8503045076 18.0
1 -14.6189285245 -14.9800459974 5.3675236619 -21.0
1 -13.1434716936 -17.9519247197 4.6353465349 -19.0
1 -11.1553230526 -15.9799027732 7.0993263978 -21.0
1 -11.357804452 -15.7245214269 3.7171818527 -21.0
1 -10.6426313234 -18.6738551502 5.88576672 -21.0
1 -7.8941989801 -16.7243782027 5.4489845886 -21.0
1 -19.1079175357 -16.2301375134 1.6531236138 -14.0
1 -20.5833743666 -13.2582587912 2.3853007408 -13.0
1 -17.3222502941 -14.0027342207 0.7349589316 -21.0
1 -17.1197688947 -14.258115567 4.1171034768 -21.0
1 -13.8586448222 -15.0025909964 2.4667616676 -21.0
1 -16.6070771655 -16.9520679439 2.9035437989 -19.0
2 -11.008843876 -14.8945207652 5.4657377226 12.0
2 -11.1155157487 -17.6395242145 4.0942529876 12.0
2 -12.2194567699 -16.1931769641 1.835454261 12.0
2 -13.385760397 -16.0369219321 4.2582753999 12.0
2 -12.2194567826 -13.8605697338 3.1821856988 12.0
2 -12.2818193885 -17.4832691553 6.5170741677 12.0
2 -18.9614383719 -15.1447554782 0.0195349797 11.0
2 -17.7951347448 -12.9684033071 -1.0565547625 12.0
2 -9.5161349876 -17.170488768 6.4680189501 12.0
2 -10.6824386019 -17.0142336868 8.890840092 12.0
2 -9.5161349748 -14.8378815156 7.8147503497 12.0
2 -18.9614383591 -12.8121482258 1.3662663793 12.0
2 -16.258116564 -16.1220672601 4.6520996306 12.0
2 -15.0918129497 -13.9457150618 3.5760099295 12.0
2 -18.7417049832 -14.704226103 5.1361376993 8.0
2 -16.0890820855 -15.0596101846 -0.3742891914 12.0
2 -17.468729458 -15.0881162559 2.3685475657 12.0
2 -16.2581165768 -13.7894600298 5.9988310685 12.0
1 -2.6900368403 -18.4236204099 11.331969504 -21.0
1 -1.2145800095 -21.3954991322 10.5997923769 -17.0
1 0.7735686316 -19.4234771857 13.0637722399 -19.0
1 0.5710872322 -19.1680958394 9.6816276948 -21.0
1 1.2862603607 -22.1174295627 11.850212562 -12.0
1 4.0346927041 -20.1679526152 11.4134304307 -19.0
1 -7.1790258516 -19.6737119259 7.6175694559 -19.0
1 -8.6544826824 -16.7018332037 8.3497465829 -21.0
1 -5.3933586099 -17.4463086332 6.6994047737 -21.0
1 -5.1908772105 -17.7016899795 10.0815493189 -21.0
1 -1.929753138 -18.4461654089 8.4312075097 -21.0
1 -4.6781854814 -20.3956423564 8.867989641 -21.0
2 0.9200478082 -18.3380951777 11.4301835647 12.0
2 0.8133759355 -21.083098627 10.0586988297 14.0
2 -0.2905650857 -19.6367513766 7.7999001031 12.0
2 -1.4568687128 -19.4804963446 10.222721242 12.0
2 -0.2905650985 -17.3041441463 9.1466315409 12.0
2 -0.3529277043 -20.9268435678 12.4815200098 15.0
2 -7.0325466877 -18.5883298907 5.9839808218 12.0
2 -5.8662430606 -16.4119777196 4.9078910796 12.0
2 2.4127566966 -20.6140631805 12.4324647922 13.0
2 1.2464530823 -20.4578080993 14.8552859341 6.0
2 2.4127567094 -18.2814559281 13.7791961918 12.0
2 -7.0325466749 -16.2557226383 7.3307122214 12.0
2 -4.3292248799 -19.5656416726 10.6165454727 12.0
2 -3.1629212655 -17.3892894743 9.5404557716 12.0
2 -6.812813299 -18.1478005155 11.1005835414 12.0
2 -4.1601904013 -18.5031845971 5.5901566507 12.0
2 -5.5398377738 -18.5316906684 8.3329934078 12.0
2 -4.3292248926 -17.2330344423 11.9632769105 12.0
1 4.7498658326 -23.1172863384 13.582015298 -6.0
1 3.2744090018 -20.1454076162 14.314192425 -14.0
1 6.5355330743 -20.8898830457 12.6638506158 -13.0
1 6.7380144737 -21.145264392 16.045995161 -12.0
2 4.8963449965 -22.0319043032 11.9484266639 5.0
2 6.0626486236 -19.8555521321 10.8723369217 14.0
2 4.8963450092 -19.6992970508 13.2951580635 15.0
2 8.7659704187 -20.8328638868 15.5049016137 12.0
2 7.7687012829 -21.9467590096 11.5546024928 1.0
2 6.3890539104 -21.9752650809 14.2974392499 14.0
1 -24.3571902493 -9.8198309554 5.2492020889 -10.0
1 -24.5596716487 -9.5644496091 1.8670575438 -9.0
1 -23.8444985201 -12.5137833324 4.0356424111 -4.0
1 -21.0960661768 -10.5643063849 3.5988602797 -17.0
2 -24.2107110727 -8.7344489474 3.6156134137 6.0
2 -24.3173829454 -11.4794523968 2.2441286787 14.0
2 -25.4213239666 -10.0331051463 -0.0146700479 8.0
2 -25.4213239793 -7.700497916 1.3320613899 9.0
2 -22.7180021842 -11.0104169502 4.6178946412 9.0
2 -23.8843057986 -10.854161869 7.0407157831 2.0
2 -22.7180021715 -8.6778096979 5.9646260408 14.0
1 -15.891904037 -12.2635485921 9.4818451951 -21.0
1 -14.4164472061 -15.2354273144 8.749668068 -19.0
1 -12.4282985651 -13.2634053679 11.213647931 -21.0
1 -12.6307799645 -13.0080240216 7.8315033859 -21.0
1 -11.9156068359 -15.9573577449 10.0000882531 -21.0
1 -9.1671744926 -14.0078807974 9.5633061218 -21.0
1 -20.3808930482 -13.5136401082 5.767445147 -14.0
1 -21.8563498791 -10.5417613859 6.499622274 -14.0
1 -18.5952258066 -11.2862368154 4.8492804648 -21.0
1 -18.3927444072 -11.5416181617 8.23142501 -21.0
1 -15.1316203347 -12.2860935912 6.5810832008 -21.0
1 -17.880052678 -14.2355705386 7.0178653321 -19.0
2 -12.2818193885 -12.1780233599 9.5800592558 12.0
2 -12.3884912612 -14.9230268093 8.2085745208 12.0
2 -13.4924322824 -13.4766795588 5.9497757942 12.0
2 -14.6587359095 -13.3204245268 8.3725969331 12.0
2 -13.4924322951 -11.1440723285 7.296507232 12.0
2 -13.554794901 -14.7667717501 10.6313957009 12.0
2 -20.2344138844 -12.4282580729 4.1338565129 11.0
2 -19.0681102573 -10.2519059018 3.0577667707 12.0
2 -10.7891105001 -14.4539913627 10.5823404833 12.0
2 -11.9554141144 -14.2977362815 13.0051616251 12.0
2 -10.7891104873 -12.1213841104 11.9290718829 12.0
2 -20.2344138716 -10.0956508206 5.4805879125 12.0
2 -17.5310920765 -13.4055698548 8.7664211638 9.0
2 -16.3647884622 -11.2292176565 7.6903314627 12.0
2 -20.0146804957 -11.9877286977 9.2504592325 9.0
2 -17.362057598 -12.3431127793 3.7400323418 12.0
2 -18.7417049705 -12.3716188506 6.4828690989 14.0
2 -17.5310920893 -11.0729626245 10.1131526016 12.0
1 -3.9630123528 -15.7071230046 15.4462910372 -21.0
1 -2.487555522 -18.6790017269 14.7141139101 -17.0
1 -0.4994068809 -16.7069797804 17.1780937731 -17.0
1 -0.7018882803 -16.4515984341 13.795949228 -21.0
1 0.0132848482 -19.4009321574 15.9645340952 -14.0
1 2.7617171916 -17.4514552099 15.5277519639 -21.0
1 -8.4520013641 -16.9572145207 11.7318909891 -19.0
1 -9.9274581949 -13.9853357984 12.4640681161 -21.0
1 -6.6663341224 -14.7298112279 10.8137263069 -21.0
1 -6.463852723 -14.9851925742 14.1958708521 -21.0
1 -3.2027286505 -15.7296680037 12.5455290429 -21.0
1 -5.9511609939 -17.6791449511 12.9823111742 -21.0
2 -0.3529277043 -15.6215977724 15.5445050979 12.0
2 -0.459599577 -18.3666012218 14.1730203629 14.0
2 -1.5635405982 -16.9202539713 11.9142216363 12.0
2 -2.7298442253 -16.7639989393 14.3370427752 12.0
2 -1.563540611 -14.587646741 13.2609530741 12.0
2 -1.6259032168 -18.2103461626 16.595841543 9.0
2 -8.3055222002 -15.8718324854 10.098302355 12.0
2 -7.1392185731 -13.6954803143 9.0222126128 12.0
2 1.1397811841 -17.8975657752 16.5467863254 13.0
2 -0.0265224302 -17.741310694 18.9696074672 3.0
2 1.1397811969 -15.5649585229 17.893517725 11.0
2 -8.3055221874 -13.5392252331 11.4450337546 12.0
2 -5.6022003924 -16.8491442673 14.7308670059 12.0
2 -4.435896778 -14.672792069 13.6547773048 12.0
2 -8.0857888115 -15.4313031102 15.2149050746 12.0
2 -5.4331659138 -15.7866871918 9.7044781839 12.0
2 -6.8128132863 -15.8151932631 12.447314941 12.0
2 -5.6022004051 -14.516537037 16.0775984437 12.0
1 3.4768903201 -20.4007889332 17.6963368312 -6.0
1 2.0014334893 -17.4289102109 18.4285139582 -11.0
1 5.2625575618 -18.1733856404 16.778172149 -17.0
1 5.4650389612 -18.4287669867 20.1603166942 -9.0
2 3.623369484 -19.3154068979 16.0627481971 6.0
2 4.7896731111 -17.1390547268 14.9866584549 14.0
2 3.6233694967 -16.9827996456 17.4094795967 12.0
2 7.4929949062 -18.1163664815 19.6192231469 14.0
2 6.4957257704 -19.2302616043 15.668924026 2.0
2 5.1160783979 -19.2587676756 18.4117607831 9.0
1 -25.8326471612 -6.8479522038 5.981379077 -16.0
1 -22.3690416893 -7.8478089796 7.7131818129 -21.0
2 -25.4836865852 -6.0179515421 7.7299349469 6.0
2 -25.5903584579 -8.7629549915 6.3584502119 13.0
2 -26.6942994918 -4.9840005107 5.4463829231 5.0
2 -23.9909776967 -8.293919545 8.7322161744 6.0
2 -23.990977684 -5.9613122926 10.078947574 3.0
1 -17.1648795495 -9.5470511869 13.5961667283 -21.0
1 -15.6894227186 -12.5189299091 12.8639896012 -19.0
1 -13.7012740776 -10.5469079626 15.3279694642 -21.0
1 -13.903755477 -10.2915266163 11.9458249191 -21.0
1 -13.1885823484 -13.2408603396 14.1144097863 -21.0
1 -10.4401500051 -11.2913833921 13.677627655 -21.0
1 -21.6538685607 -10.7971427029 9.8817666802 -12.0
1 -23.1293253916 -7.8252639806 10.6139438072 -16.0
1 -19.8682013191 -8.5697394101 8.963601998 -21.0
1 -19.6657199197 -8.8251207564 12.3457465432 -18.0
1 -16.4045958472 -9.5695961859 10.695404734 -21.0
1 -19.1530281905 -11.5190731333 11.1321868653 -15.0
2 -13.554794901 -9.4615259546 13.694380789 12.0
2 -13.6614667737 -12.206529404 12.322896054 12.0
2 -14.7654077949 -10.7601821535 10.0640973274 12.0
2 -15.931711422 -10.6039271215 12.4869184663 12.0
2 -14.7654078076 -8.4275749232 11.4108287652 12.0
2 -14.8277704135 -12.0502743448 14.7457172341 3.0
2 -21.5073893969 -9.7117606677 8.2481780461 7.0
2 -20.3410857698 -7.5354084965 7.1720883039 12.0
2 -12.0620860126 -11.7374939575 14.6966620165 12.0
2 -13.2283896269 -11.5812388762 17.1194831583 0.0
2 -12.0620859998 -9.4048867051 16.0433934161 12.0
2 -21.5073893841 -7.3791534153 9.5949094457 2.0
2 -18.804067589 -10.6890724496 12.880742697 7.0
2 -17.6377639747 -8.5127202513 11.8046529959 12.0
2 -21.2876560082 -9.2712312924 13.3647807657 9.0
2 -18.6350331105 -9.626615374 7.854353875 12.0
2 -20.014680483 -9.6551214453 10.5971906321 13.0