# LAMMPS data file written by Ovito 3.10.6

6250 atoms
2 atom types

-75.0 125.0 xlo xhi
-75.0 75.0 ylo yhi
-75.0 75.0 zlo zhi

Masses

1 55.845  # Fe3+
2 15.9994  # O2-

Atoms  # charge

1 1 0.0 -12.7297551505 -19.1087716105 -6.5911460557
2 1 0.0 -12.7297551505 -19.1087716105 -2.5917189525
3 1 0.0 -10.1838040745 -20.5786771495 -4.2954298725
4 1 0.0 -10.1838040745 -20.5786771495 -0.2960027693
5 1 0.0 -12.7297551505 -19.1087716105 -9.4788677775
6 1 0.0 -10.1838040745 -20.5786771495 -7.1831515943
7 2 0.0 -10.9613398599 -18.9855975563 -3.4435744125
8 2 0.0 -11.1746836053 -22.0485826444 -3.4435744125
9 2 0.0 -9.4062683401 -21.9254085461 -5.7392907334
10 2 0.0 -11.7388755942 -20.5786771495 -5.7392907334
11 2 0.0 -9.4062683656 -19.2319457087 -5.7392907334
12 2 0.0 -13.5072908849 -20.7018512036 -3.4435744125
13 2 0.0 -11.9522193906 -20.4555030512 -1.1478580916
14 2 0.0 -14.2848266192 -19.1087716105 -1.1478580916
15 2 0.0 -11.9522193651 -17.7620402138 -1.1478580916
16 2 0.0 -11.1746836308 -19.1087716105 -8.0350069166
17 2 0.0 -13.5072908849 -17.7620402138 -8.0350069166
18 1 0.0 -12.7297551505 -19.1087716105 7.1831515943
19 1 0.0 -10.1838040745 -20.5786771495 9.4788677775
20 1 0.0 -12.7297551505 -19.1087716105 0.2960027693
21 1 0.0 -10.1838040745 -20.5786771495 2.5917189525
22 1 0.0 -12.7297551505 -19.1087716105 4.2954298725
23 1 0.0 -10.1838040745 -20.5786771495 6.5911460557
24 2 0.0 -10.9613398599 -18.9855975563 10.3307232375
25 2 0.0 -9.4062683656 -19.2319457087 8.0350069166
26 2 0.0 -10.9613398599 -21.9254085461 1.1478580916
27 2 0.0 -8.6287326058 -20.5786771495 1.1478580916
28 2 0.0 -11.9522193651 -17.7620402138 12.6264395584
29 2 0.0 -10.9613398344 -19.2319457087 1.1478580916
30 2 0.0 -11.1746836308 -19.1087716105 5.7392907334
31 2 0.0 -14.4981703901 -18.9855975563 3.4435744125
32 2 0.0 -9.1929245947 -22.0485826444 3.4435744125
33 2 0.0 -11.9522193397 -20.7018512477 3.4435744125
34 2 0.0 -13.5072908849 -17.7620402138 5.7392907334
35 1 0.0 -12.7297550995 -16.1689606206 -14.0703004193
36 2 0.0 -14.4981703901 -13.3523236849 -14.9221557416
37 1 0.0 -15.2757061755 -14.6990550816 -6.5911460557
38 1 0.0 -15.27570615 -17.6388661155 -4.8874352734
39 1 0.0 -15.2757061755 -14.6990550816 -2.5917189525
40 1 0.0 -12.7297550995 -16.1689606206 -4.2954298725
41 1 0.0 -15.27570615 -17.6388661155 -1.9997135516
42 1 0.0 -12.7297550995 -16.1689606206 -0.2960027693
43 1 0.0 -12.7297550995 -16.1689606206 -11.1825786975
44 1 0.0 -15.2757061755 -14.6990550816 -9.4788677775
45 1 0.0 -12.7297550995 -16.1689606206 -7.1831515943
46 2 0.0 -13.5072908849 -14.5758810274 -3.4435744125
47 2 0.0 -13.7206346303 -17.6388661155 -3.4435744125
48 2 0.0 -11.9522193651 -17.5156920173 -5.7392907334
49 2 0.0 -14.2848266192 -16.1689606206 -5.7392907334
50 2 0.0 -11.9522193906 -14.8222291798 -5.7392907334
51 2 0.0 -16.0532419099 -16.2921346748 -3.4435744125
52 2 0.0 -11.1746836308 -16.1689606206 -12.6264395584
53 2 0.0 -14.4981704156 -16.0457865223 -1.1478580916
54 2 0.0 -16.8307776442 -14.6990550816 -1.1478580916
55 2 0.0 -14.4981703901 -13.3523236849 -1.1478580916
56 2 0.0 -13.5072908594 -14.8222291798 -12.6264395584
57 2 0.0 -16.0532418844 -16.0457865223 -8.0350069166
58 2 0.0 -13.7206346558 -14.6990550816 -8.0350069166
59 2 0.0 -17.0441214151 -14.5758810274 -10.3307232375
60 2 0.0 -11.7388756197 -17.6388661155 -10.3307232375
61 2 0.0 -14.4981703647 -16.2921347189 -10.3307232375
62 2 0.0 -16.0532419099 -13.3523236849 -8.0350069166
63 1 0.0 -15.2757061755 -14.6990550816 7.1831515943
64 1 0.0 -15.27570615 -17.6388661155 8.8868623766
65 1 0.0 -15.2757061755 -14.6990550816 11.1825786975
66 1 0.0 -12.7297550995 -16.1689606206 9.4788677775
67 1 0.0 -12.7297550995 -16.1689606206 13.4782948807
68 1 0.0 -15.27570615 -17.6388661155 1.9997135516
69 1 0.0 -15.2757061755 -14.6990550816 0.2960027693
70 1 0.0 -12.7297550995 -16.1689606206 2.5917189525
71 1 0.0 -15.2757061755 -14.6990550816 4.2954298725
72 1 0.0 -12.7297550995 -16.1689606206 6.5911460557
73 1 0.0 -15.27570615 -17.6388661155 4.8874352734
74 2 0.0 -13.5072908849 -14.5758810274 10.3307232375
75 2 0.0 -13.7206346303 -17.6388661155 10.3307232375
76 2 0.0 -11.9522193651 -17.5156920173 8.0350069166
77 2 0.0 -14.2848266192 -16.1689606206 8.0350069166
78 2 0.0 -11.9522193906 -14.8222291798 8.0350069166
79 2 0.0 -13.5072908849 -17.5156920173 1.1478580916
80 2 0.0 -11.1746836308 -16.1689606206 1.1478580916
81 2 0.0 -14.4981703901 -13.3523236849 12.6264395584
82 2 0.0 -13.5072908594 -14.8222291798 1.1478580916
83 2 0.0 -16.0532418844 -16.0457865223 5.7392907334
84 2 0.0 -13.7206346558 -14.6990550816 5.7392907334
85 2 0.0 -17.0441214151 -14.5758810274 3.4435744125
86 2 0.0 -11.7388756197 -17.6388661155 3.4435744125
87 2 0.0 -14.4981703647 -16.2921347189 3.4435744125
88 2 0.0 -16.0532419099 -13.3523236849 5.7392907334
89 2 0.0 -11.1746836308 -16.1689606206 14.9221557416
90 2 0.0 -13.5072908594 -14.8222291798 14.9221557416
91 1 0.0 -15.2757061245 -11.7592440917 -14.0703004193
92 2 0.0 -17.0441214151 -8.942607156 -14.9221557416
93 1 0.0 -17.8216572005 -10.2893385527 -6.5911460557
94 1 0.0 -17.821657175 -13.2291495866 -4.8874352734
95 1 0.0 -17.8216572005 -10.2893385527 -2.5917189525
96 1 0.0 -15.2757061245 -11.7592440917 -4.2954298725
97 1 0.0 -17.821657175 -13.2291495866 -1.9997135516
98 1 0.0 -15.2757061245 -11.7592440917 -0.2960027693
99 1 0.0 -17.8216572005 -10.2893385527 -13.4782948807
100 1 0.0 -15.2757061245 -11.7592440917 -11.1825786975
101 1 0.0 -17.8216572005 -10.2893385527 -9.4788677775
102 1 0.0 -15.2757061245 -11.7592440917 -7.1831515943
103 1 0.0 -17.821657175 -13.2291495866 -8.8868623766
104 2 0.0 -16.0532419099 -10.1661644985 -3.4435744125
105 2 0.0 -16.2665856553 -13.2291495866 -3.4435744125
106 2 0.0 -14.4981703901 -13.1059754884 -5.7392907334
107 2 0.0 -16.8307776442 -11.7592440917 -5.7392907334
108 2 0.0 -14.4981704156 -10.412512651 -5.7392907334
109 2 0.0 -18.5991929349 -11.8824181459 -3.4435744125
110 2 0.0 -16.0532419099 -13.1059754884 -12.6264395584
111 2 0.0 -13.7206346558 -11.7592440917 -12.6264395584
112 2 0.0 -17.0441214406 -11.6360699935 -1.1478580916
113 2 0.0 -19.3767286692 -10.2893385527 -1.1478580916
114 2 0.0 -17.0441214151 -8.942607156 -1.1478580916
115 2 0.0 -16.0532418844 -10.412512651 -12.6264395584
116 2 0.0 -18.5991929094 -11.6360699935 -8.0350069166
117 2 0.0 -16.2665856808 -10.2893385527 -8.0350069166
118 2 0.0 -19.5900724401 -10.1661644985 -10.3307232375
119 2 0.0 -14.2848266447 -13.2291495866 -10.3307232375
120 2 0.0 -17.0441213897 -11.88241819 -10.3307232375
121 2 0.0 -18.5991929349 -8.942607156 -8.0350069166
122 1 0.0 -17.8216572005 -10.2893385527 7.1831515943
123 1 0.0 -17.821657175 -13.2291495866 8.8868623766
124 1 0.0 -17.8216572005 -10.2893385527 11.1825786975
125 1 0.0 -15.2757061245 -11.7592440917 9.4788677775
126 1 0.0 -15.2757061245 -11.7592440917 13.4782948807
127 1 0.0 -17.821657175 -13.2291495866 1.9997135516
128 1 0.0 -17.8216572005 -10.2893385527 0.2960027693
129 1 0.0 -15.2757061245 -11.7592440917 2.5917189525
130 1 0.0 -17.8216572005 -10.2893385527 4.2954298725
131 1 0.0 -15.2757061245 -11.7592440917 6.5911460557
132 1 0.0 -17.821657175 -13.2291495866 4.8874352734
133 2 0.0 -16.0532419099 -10.1661644985 10.3307232375
134 2 0.0 -16.2665856553 -13.2291495866 10.3307232375
135 2 0.0 -14.4981703901 -13.1059754884 8.0350069166
136 2 0.0 -16.8307776442 -11.7592440917 8.0350069166
137 2 0.0 -14.4981704156 -10.412512651 8.0350069166
138 2 0.0 -18.5991929349 -11.8824181459 10.3307232375
139 2 0.0 -16.0532419099 -13.1059754884 1.1478580916
140 2 0.0 -13.7206346558 -11.7592440917 1.1478580916
141 2 0.0 -17.0441214406 -11.6360699935 12.6264395584
142 2 0.0 -17.0441214151 -8.942607156 12.6264395584
143 2 0.0 -16.0532418844 -10.412512651 1.1478580916
144 2 0.0 -18.5991929094 -11.6360699935 5.7392907334
145 2 0.0 -16.2665856808 -10.2893385527 5.7392907334
146 2 0.0 -19.5900724401 -10.1661644985 3.4435744125
147 2 0.0 -14.2848266447 -13.2291495866 3.4435744125
148 2 0.0 -17.0441213897 -11.88241819 3.4435744125
149 2 0.0 -18.5991929349 -8.942607156 5.7392907334
150 1 0.0 -17.8216572005 -10.2893385527 14.0703004193
151 2 0.0 -13.7206346558 -11.7592440917 14.9221557416
152 2 0.0 -16.0532418844 -10.412512651 14.9221557416
153 1 0.0 -17.8216571495 -7.3495275628 -14.0703004193
154 1 0.0 -20.3676082255 -5.8796220238 -6.5911460557
155 1 0.0 -20.3676082 -8.8194330578 -4.8874352734
156 1 0.0 -20.3676082255 -5.8796220238 -2.5917189525
157 1 0.0 -17.8216571495 -7.3495275628 -4.2954298725
158 1 0.0 -20.3676082 -8.8194330578 -1.9997135516
159 1 0.0 -17.8216571495 -7.3495275628 -0.2960027693
160 1 0.0 -17.8216571495 -7.3495275628 -11.1825786975
161 1 0.0 -20.3676082255 -5.8796220238 -9.4788677775
162 1 0.0 -17.8216571495 -7.3495275628 -7.1831515943
163 1 0.0 -20.3676082 -8.8194330578 -8.8868623766
164 2 0.0 -18.5991929349 -5.7564479696 -3.4435744125
165 2 0.0 -18.8125366803 -8.8194330578 -3.4435744125
166 2 0.0 -17.0441214151 -8.6962589595 -5.7392907334
167 2 0.0 -19.3767286692 -7.3495275628 -5.7392907334
168 2 0.0 -17.0441214406 -6.0027961221 -5.7392907334
169 2 0.0 -21.1451439599 -7.472701617 -3.4435744125
170 2 0.0 -18.5991929349 -8.6962589595 -12.6264395584
171 2 0.0 -16.2665856808 -7.3495275628 -12.6264395584
172 2 0.0 -19.5900724656 -7.2263534646 -1.1478580916
173 2 0.0 -21.9226796942 -5.8796220238 -1.1478580916
174 2 0.0 -19.5900724401 -4.5328906271 -1.1478580916
175 2 0.0 -18.5991929094 -6.0027961221 -12.6264395584
176 2 0.0 -21.1451439344 -7.2263534646 -8.0350069166
177 2 0.0 -18.8125367058 -5.8796220238 -8.0350069166
178 2 0.0 -16.8307776697 -8.8194330578 -10.3307232375
179 2 0.0 -19.5900724147 -7.4727016611 -10.3307232375
180 2 0.0 -21.1451439599 -4.5328906271 -8.0350069166
181 1 0.0 -20.3676082255 -5.8796220238 7.1831515943
182 1 0.0 -20.3676082 -8.8194330578 8.8868623766
183 1 0.0 -20.3676082255 -5.8796220238 11.1825786975
184 1 0.0 -17.8216571495 -7.3495275628 9.4788677775
185 1 0.0 -17.8216571495 -7.3495275628 13.4782948807
186 1 0.0 -20.3676082 -8.8194330578 1.9997135516
187 1 0.0 -20.3676082255 -5.8796220238 0.2960027693
188 1 0.0 -17.8216571495 -7.3495275628 2.5917189525
189 1 0.0 -20.3676082255 -5.8796220238 4.2954298725
190 1 0.0 -17.8216571495 -7.3495275628 6.5911460557
191 1 0.0 -20.3676082 -8.8194330578 4.8874352734
192 2 0.0 -18.5991929349 -5.7564479696 10.3307232375
193 2 0.0 -18.8125366803 -8.8194330578 10.3307232375
194 2 0.0 -17.0441214151 -8.6962589595 8.0350069166
195 2 0.0 -19.3767286692 -7.3495275628 8.0350069166
196 2 0.0 -17.0441214406 -6.0027961221 8.0350069166
197 2 0.0 -21.1451439599 -7.472701617 10.3307232375
198 2 0.0 -18.5991929349 -8.6962589595 1.1478580916
199 2 0.0 -16.2665856808 -7.3495275628 1.1478580916
200 2 0.0 -19.5900724656 -7.2263534646 12.6264395584
201 2 0.0 -19.5900724401 -4.5328906271 12.6264395584
202 2 0.0 -18.5991929094 -6.0027961221 1.1478580916
203 2 0.0 -21.1451439344 -7.2263534646 5.7392907334
204 2 0.0 -18.8125367058 -5.8796220238 5.7392907334
205 2 0.0 -22.1360234651 -5.7564479696 3.4435744125
206 2 0.0 -16.8307776697 -8.8194330578 3.4435744125
207 2 0.0 -19.5900724147 -7.4727016611 3.4435744125
208 2 0.0 -21.1451439599 -4.5328906271 5.7392907334
209 2 0.0 -16.2665856808 -7.3495275628 14.9221557416
210 2 0.0 -18.5991929094 -6.0027961221 14.9221557416
211 1 0.0 -20.3676081745 -2.939811034 -14.0703004193
212 1 0.0 -22.9135592505 -1.4699054949 -6.5911460557
213 1 0.0 -22.913559225 -4.4097165289 -4.8874352734
214 1 0.0 -22.9135592505 -1.4699054949 -2.5917189525
215 1 0.0 -20.3676081745 -2.939811034 -4.2954298725
216 1 0.0 -22.913559225 -4.4097165289 -1.9997135516
217 1 0.0 -20.3676081745 -2.939811034 -0.2960027693
218 1 0.0 -20.3676081745 -2.939811034 -11.1825786975
219 1 0.0 -22.9135592505 -1.4699054949 -9.4788677775
220 1 0.0 -20.3676081745 -2.939811034 -7.1831515943
221 1 0.0 -22.913559225 -4.4097165289 -8.8868623766
222 2 0.0 -21.1451439599 -1.3467314408 -3.4435744125
223 2 0.0 -21.3584877053 -4.4097165289 -3.4435744125
224 2 0.0 -19.5900724401 -4.2865424306 -5.7392907334
225 2 0.0 -21.9226796942 -2.939811034 -5.7392907334
226 2 0.0 -19.5900724656 -1.5930795932 -5.7392907334
227 2 0.0 -23.6910949849 -3.0629850881 -3.4435744125
228 2 0.0 -21.1451439599 -4.2865424306 -12.6264395584
229 2 0.0 -18.8125367058 -2.939811034 -12.6264395584
230 2 0.0 -22.1360234906 -2.8166369357 -1.1478580916
231 2 0.0 -24.4686307192 -1.4699054949 -1.1478580916
232 2 0.0 -22.1360234651 -0.1231740983 -1.1478580916
233 2 0.0 -21.1451439344 -1.5930795932 -12.6264395584
234 2 0.0 -21.3584877308 -1.4699054949 -8.0350069166
235 2 0.0 -19.3767286947 -4.4097165289 -10.3307232375
236 2 0.0 -22.1360234397 -3.0629851322 -10.3307232375
237 1 0.0 -22.9135592505 -1.4699054949 7.1831515943
238 1 0.0 -22.913559225 -4.4097165289 8.8868623766
239 1 0.0 -20.3676081745 -2.939811034 9.4788677775
240 1 0.0 -20.3676081745 -2.939811034 13.4782948807
241 1 0.0 -22.913559225 -4.4097165289 1.9997135516
242 1 0.0 -22.9135592505 -1.4699054949 0.2960027693
243 1 0.0 -20.3676081745 -2.939811034 2.5917189525
244 1 0.0 -22.9135592505 -1.4699054949 4.2954298725
245 1 0.0 -20.3676081745 -2.939811034 6.5911460557
246 1 0.0 -22.913559225 -4.4097165289 4.8874352734
247 2 0.0 -21.1451439599 -1.3467314408 10.3307232375
248 2 0.0 -21.3584877053 -4.4097165289 10.3307232375
249 2 0.0 -19.5900724401 -4.2865424306 8.0350069166
250 2 0.0 -21.9226796942 -2.939811034 8.0350069166
251 2 0.0 -19.5900724656 -1.5930795932 8.0350069166
252 2 0.0 -21.1451439599 -4.2865424306 1.1478580916
253 2 0.0 -18.8125367058 -2.939811034 1.1478580916
254 2 0.0 -21.1451439344 -1.5930795932 1.1478580916
255 2 0.0 -23.6910949594 -2.8166369357 5.7392907334
256 2 0.0 -21.3584877308 -1.4699054949 5.7392907334
257 2 0.0 -24.6819744901 -1.3467314408 3.4435744125
258 2 0.0 -19.3767286947 -4.4097165289 3.4435744125
259 2 0.0 -22.1360234397 -3.0629851322 3.4435744125
260 2 0.0 -23.6910949849 -0.1231740983 5.7392907334
261 2 0.0 -18.8125367058 -2.939811034 14.9221557416
262 1 0.0 -22.9135591995 1.4699054949 -4.2954298725
263 1 0.0 -22.9135591995 1.4699054949 -0.2960027693
264 1 0.0 -22.9135591995 1.4699054949 -7.1831515943
265 2 0.0 -23.6910949849 3.0629850881 -3.4435744125
266 2 0.0 -23.9044387303 0.0 -3.4435744125
267 2 0.0 -22.1360234651 0.1231740983 -5.7392907334
268 2 0.0 -22.1360234906 2.8166369357 -5.7392907334
269 2 0.0 -21.3584877308 1.4699054949 -12.6264395584
270 2 0.0 -24.6819745156 1.5930795932 -1.1478580916
271 2 0.0 -21.9226797197 0.0 -10.3307232375
272 1 0.0 -22.9135591995 1.4699054949 9.4788677775
273 1 0.0 -22.9135591995 1.4699054949 2.5917189525
274 1 0.0 -22.9135591995 1.4699054949 6.5911460557
275 2 0.0 -22.1360234651 0.1231740983 8.0350069166
276 2 0.0 -22.1360234906 2.8166369357 8.0350069166
277 2 0.0 -23.6910949849 0.1231740983 1.1478580916
278 2 0.0 -21.3584877308 1.4699054949 1.1478580916
279 2 0.0 -23.6910949594 2.8166369357 1.1478580916
280 2 0.0 -23.9044387558 2.939811034 5.7392907334
281 2 0.0 -21.9226797197 0.0 3.4435744125
282 2 0.0 -24.6819744647 1.3467313967 3.4435744125
283 2 0.0 -23.9044387558 5.8796220238 1.1478580916
284 2 0.0 -6.8603173151 -17.7620402138 -14.9221557416
285 1 0.0 -7.6378531005 -19.1087716105 -6.5911460557
286 1 0.0 -7.637853075 -22.0485826444 -4.8874352734
287 1 0.0 -7.6378531005 -19.1087716105 -2.5917189525
288 1 0.0 -5.0919020245 -20.5786771495 -4.2954298725
289 1 0.0 -7.637853075 -22.0485826444 -1.9997135516
290 1 0.0 -5.0919020245 -20.5786771495 -0.2960027693
291 1 0.0 -7.6378531005 -19.1087716105 -13.4782948807
292 1 0.0 -5.0919020245 -20.5786771495 -11.1825786975
293 1 0.0 -7.6378531005 -19.1087716105 -9.4788677775
294 1 0.0 -5.0919020245 -20.5786771495 -7.1831515943
295 1 0.0 -7.637853075 -22.0485826444 -8.8868623766
296 2 0.0 -5.8694378099 -18.9855975563 -3.4435744125
297 2 0.0 -6.0827815553 -22.0485826444 -3.4435744125
298 2 0.0 -4.3143662901 -21.9254085461 -5.7392907334
299 2 0.0 -6.6469735442 -20.5786771495 -5.7392907334
300 2 0.0 -4.3143663156 -19.2319457087 -5.7392907334
301 2 0.0 -8.4153888349 -20.7018512036 -3.4435744125
302 2 0.0 -3.5368305558 -20.5786771495 -12.6264395584
303 2 0.0 -6.8603173406 -20.4555030512 -1.1478580916
304 2 0.0 -9.1929245692 -19.1087716105 -1.1478580916
305 2 0.0 -6.8603173151 -17.7620402138 -1.1478580916
306 2 0.0 -5.8694377844 -19.2319457087 -12.6264395584
307 2 0.0 -8.4153888094 -20.4555030512 -8.0350069166
308 2 0.0 -6.0827815808 -19.1087716105 -8.0350069166
309 2 0.0 -9.4062683401 -18.9855975563 -10.3307232375
310 2 0.0 -4.1010225447 -22.0485826444 -10.3307232375
311 2 0.0 -6.8603172897 -20.7018512477 -10.3307232375
312 2 0.0 -8.4153888349 -17.7620402138 -8.0350069166
313 1 0.0 -7.6378531005 -19.1087716105 7.1831515943
314 1 0.0 -7.6378531005 -19.1087716105 11.1825786975
315 1 0.0 -5.0919020245 -20.5786771495 9.4788677775
316 1 0.0 -7.637853075 -22.0485826444 1.9997135516
317 1 0.0 -7.6378531005 -19.1087716105 0.2960027693
318 1 0.0 -5.0919020245 -20.5786771495 2.5917189525
319 1 0.0 -7.6378531005 -19.1087716105 4.2954298725
320 1 0.0 -5.0919020245 -20.5786771495 6.5911460557
321 1 0.0 -7.637853075 -22.0485826444 4.8874352734
322 2 0.0 -5.8694378099 -18.9855975563 10.3307232375
323 2 0.0 -4.3143662901 -21.9254085461 8.0350069166
324 2 0.0 -6.6469735442 -20.5786771495 8.0350069166
325 2 0.0 -4.3143663156 -19.2319457087 8.0350069166
326 2 0.0 -8.4153888349 -20.7018512036 10.3307232375
327 2 0.0 -5.8694378099 -21.9254085461 1.1478580916
328 2 0.0 -3.5368305558 -20.5786771495 1.1478580916
329 2 0.0 -6.8603173406 -20.4555030512 12.6264395584
330 2 0.0 -9.1929245692 -19.1087716105 12.6264395584
331 2 0.0 -6.8603173151 -17.7620402138 12.6264395584
332 2 0.0 -5.8694377844 -19.2319457087 1.1478580916
333 2 0.0 -8.4153888094 -20.4555030512 5.7392907334
334 2 0.0 -6.0827815808 -19.1087716105 5.7392907334
335 2 0.0 -9.4062683401 -18.9855975563 3.4435744125
336 2 0.0 -4.1010225447 -22.0485826444 3.4435744125
337 2 0.0 -6.8603172897 -20.7018512477 3.4435744125
338 2 0.0 -8.4153888349 -17.7620402138 5.7392907334
339 1 0.0 -7.6378531005 -19.1087716105 14.0703004193
340 1 0.0 -10.1838041255 -14.6990550816 -16.3660166025
341 1 0.0 -7.6378530495 -16.1689606206 -14.0703004193
342 2 0.0 -8.4153888349 -14.5758810274 -17.2178720625
343 2 0.0 -9.4062683656 -16.0457865223 -14.9221557416
344 2 0.0 -11.7388755942 -14.6990550816 -14.9221557416
345 2 0.0 -9.4062683401 -13.3523236849 -14.9221557416
346 1 0.0 -10.1838041255 -14.6990550816 -6.5911460557
347 1 0.0 -10.1838041 -17.6388661155 -4.8874352734
348 1 0.0 -10.1838041255 -14.6990550816 -2.5917189525
349 1 0.0 -7.6378530495 -16.1689606206 -4.2954298725
350 1 0.0 -10.1838041 -17.6388661155 -1.9997135516
351 1 0.0 -7.6378530495 -16.1689606206 -0.2960027693
352 1 0.0 -10.1838041 -17.6388661155 -11.7745840984
353 1 0.0 -10.1838041255 -14.6990550816 -13.4782948807
354 1 0.0 -7.6378530495 -16.1689606206 -11.1825786975
355 1 0.0 -10.1838041255 -14.6990550816 -9.4788677775
356 1 0.0 -7.6378530495 -16.1689606206 -7.1831515943
357 1 0.0 -10.1838041 -17.6388661155 -8.8868623766
358 2 0.0 -8.4153888349 -14.5758810274 -3.4435744125
359 2 0.0 -8.6287325803 -17.6388661155 -3.4435744125
360 2 0.0 -6.8603173151 -17.5156920173 -5.7392907334
361 2 0.0 -9.1929245692 -16.1689606206 -5.7392907334
362 2 0.0 -6.8603173406 -14.8222291798 -5.7392907334
363 2 0.0 -10.9613398599 -16.2921346748 -3.4435744125
364 2 0.0 -8.4153888349 -17.5156920173 -12.6264395584
365 2 0.0 -6.0827815808 -16.1689606206 -12.6264395584
366 2 0.0 -9.4062683656 -16.0457865223 -1.1478580916
367 2 0.0 -11.7388755942 -14.6990550816 -1.1478580916
368 2 0.0 -9.4062683401 -13.3523236849 -1.1478580916
369 2 0.0 -8.4153888094 -14.8222291798 -12.6264395584
370 2 0.0 -10.9613398344 -16.0457865223 -8.0350069166
371 2 0.0 -8.6287326058 -14.6990550816 -8.0350069166
372 2 0.0 -11.9522193651 -14.5758810274 -10.3307232375
373 2 0.0 -6.6469735697 -17.6388661155 -10.3307232375
374 2 0.0 -9.4062683147 -16.2921347189 -10.3307232375
375 2 0.0 -10.9613398599 -13.3523236849 -8.0350069166
376 1 0.0 -10.1838041255 -14.6990550816 7.1831515943
377 1 0.0 -10.1838041 -17.6388661155 8.8868623766
378 1 0.0 -10.1838041255 -14.6990550816 11.1825786975
379 1 0.0 -7.6378530495 -16.1689606206 9.4788677775
380 1 0.0 -10.1838041 -17.6388661155 11.7745840984
381 1 0.0 -7.6378530495 -16.1689606206 13.4782948807
382 1 0.0 -10.1838041 -17.6388661155 1.9997135516
383 1 0.0 -10.1838041255 -14.6990550816 0.2960027693
384 1 0.0 -7.6378530495 -16.1689606206 2.5917189525
385 1 0.0 -10.1838041255 -14.6990550816 4.2954298725
386 1 0.0 -7.6378530495 -16.1689606206 6.5911460557
387 1 0.0 -10.1838041 -17.6388661155 4.8874352734
388 2 0.0 -8.4153888349 -14.5758810274 10.3307232375
389 2 0.0 -8.6287325803 -17.6388661155 10.3307232375
390 2 0.0 -6.8603173151 -17.5156920173 8.0350069166
391 2 0.0 -9.1929245692 -16.1689606206 8.0350069166
392 2 0.0 -6.8603173406 -14.8222291798 8.0350069166
393 2 0.0 -10.9613398599 -16.2921346748 10.3307232375
394 2 0.0 -8.4153888349 -17.5156920173 1.1478580916
395 2 0.0 -6.0827815808 -16.1689606206 1.1478580916
396 2 0.0 -9.4062683656 -16.0457865223 12.6264395584
397 2 0.0 -11.7388755942 -14.6990550816 12.6264395584
398 2 0.0 -9.4062683401 -13.3523236849 12.6264395584
399 2 0.0 -8.4153888094 -14.8222291798 1.1478580916
400 2 0.0 -10.9613398344 -16.0457865223 5.7392907334
401 2 0.0 -8.6287326058 -14.6990550816 5.7392907334
402 2 0.0 -11.9522193651 -14.5758810274 3.4435744125
403 2 0.0 -6.6469735697 -17.6388661155 3.4435744125
404 2 0.0 -9.4062683147 -16.2921347189 3.4435744125
405 2 0.0 -10.9613398599 -13.3523236849 5.7392907334
406 1 0.0 -10.1838041255 -14.6990550816 14.0703004193
407 1 0.0 -7.6378530495 -16.1689606206 16.3660166025
408 2 0.0 -8.4153888349 -17.5156920173 14.9221557416
409 2 0.0 -6.0827815808 -16.1689606206 14.9221557416
410 2 0.0 -8.4153888094 -14.8222291798 14.9221557416
411 1 0.0 -12.7297551505 -10.2893385527 -16.3660166025
412 1 0.0 -10.1838040745 -11.7592440917 -18.0697275225
413 1 0.0 -12.729755125 -13.2291495866 -15.7740112016
414 1 0.0 -10.1838040745 -11.7592440917 -14.0703004193
415 2 0.0 -10.9613398599 -10.1661644985 -17.2178720625
416 2 0.0 -11.1746836053 -13.2291495866 -17.2178720625
417 2 0.0 -9.4062683656 -10.412512651 -19.5135883834
418 2 0.0 -13.5072908849 -11.8824181459 -17.2178720625
419 2 0.0 -11.9522193906 -11.6360699935 -14.9221557416
420 2 0.0 -14.2848266192 -10.2893385527 -14.9221557416
421 2 0.0 -11.9522193651 -8.942607156 -14.9221557416
422 1 0.0 -12.7297551505 -10.2893385527 -6.5911460557
423 1 0.0 -12.729755125 -13.2291495866 -4.8874352734
424 1 0.0 -12.7297551505 -10.2893385527 -2.5917189525
425 1 0.0 -10.1838040745 -11.7592440917 -4.2954298725
426 1 0.0 -12.729755125 -13.2291495866 -1.9997135516
427 1 0.0 -10.1838040745 -11.7592440917 -0.2960027693
428 1 0.0 -12.729755125 -13.2291495866 -11.7745840984
429 1 0.0 -12.7297551505 -10.2893385527 -13.4782948807
430 1 0.0 -10.1838040745 -11.7592440917 -11.1825786975
431 1 0.0 -12.7297551505 -10.2893385527 -9.4788677775
432 1 0.0 -10.1838040745 -11.7592440917 -7.1831515943
433 1 0.0 -12.729755125 -13.2291495866 -8.8868623766
434 2 0.0 -10.9613398599 -10.1661644985 -3.4435744125
435 2 0.0 -11.1746836053 -13.2291495866 -3.4435744125
436 2 0.0 -9.4062683401 -13.1059754884 -5.7392907334
437 2 0.0 -11.7388755942 -11.7592440917 -5.7392907334
438 2 0.0 -9.4062683656 -10.412512651 -5.7392907334
439 2 0.0 -13.5072908849 -11.8824181459 -3.4435744125
440 2 0.0 -10.9613398599 -13.1059754884 -12.6264395584
441 2 0.0 -8.6287326058 -11.7592440917 -12.6264395584
442 2 0.0 -11.9522193906 -11.6360699935 -1.1478580916
443 2 0.0 -14.2848266192 -10.2893385527 -1.1478580916
444 2 0.0 -11.9522193651 -8.942607156 -1.1478580916
445 2 0.0 -10.9613398344 -10.412512651 -12.6264395584
446 2 0.0 -13.5072908594 -11.6360699935 -8.0350069166
447 2 0.0 -11.1746836308 -10.2893385527 -8.0350069166
448 2 0.0 -14.4981703901 -10.1661644985 -10.3307232375
449 2 0.0 -9.1929245947 -13.2291495866 -10.3307232375
450 2 0.0 -11.9522193397 -11.88241819 -10.3307232375
451 2 0.0 -13.5072908849 -8.942607156 -8.0350069166
452 1 0.0 -12.7297551505 -10.2893385527 7.1831515943
453 1 0.0 -12.729755125 -13.2291495866 8.8868623766
454 1 0.0 -12.7297551505 -10.2893385527 11.1825786975
455 1 0.0 -10.1838040745 -11.7592440917 9.4788677775
456 1 0.0 -12.729755125 -13.2291495866 11.7745840984
457 1 0.0 -10.1838040745 -11.7592440917 13.4782948807
458 1 0.0 -12.729755125 -13.2291495866 1.9997135516
459 1 0.0 -12.7297551505 -10.2893385527 0.2960027693
460 1 0.0 -10.1838040745 -11.7592440917 2.5917189525
461 1 0.0 -12.7297551505 -10.2893385527 4.2954298725
462 1 0.0 -10.1838040745 -11.7592440917 6.5911460557
463 1 0.0 -12.729755125 -13.2291495866 4.8874352734
464 2 0.0 -10.9613398599 -10.1661644985 10.3307232375
465 2 0.0 -11.1746836053 -13.2291495866 10.3307232375
466 2 0.0 -9.4062683401 -13.1059754884 8.0350069166
467 2 0.0 -11.7388755942 -11.7592440917 8.0350069166
468 2 0.0 -9.4062683656 -10.412512651 8.0350069166
469 2 0.0 -13.5072908849 -11.8824181459 10.3307232375
470 2 0.0 -10.9613398599 -13.1059754884 1.1478580916
471 2 0.0 -8.6287326058 -11.7592440917 1.1478580916
472 2 0.0 -11.9522193906 -11.6360699935 12.6264395584
473 2 0.0 -14.2848266192 -10.2893385527 12.6264395584
474 2 0.0 -11.9522193651 -8.942607156 12.6264395584
475 2 0.0 -10.9613398344 -10.412512651 1.1478580916
476 2 0.0 -13.5072908594 -11.6360699935 5.7392907334
477 2 0.0 -11.1746836308 -10.2893385527 5.7392907334
478 2 0.0 -14.4981703901 -10.1661644985 3.4435744125
479 2 0.0 -9.1929245947 -13.2291495866 3.4435744125
480 2 0.0 -11.9522193397 -11.88241819 3.4435744125
481 2 0.0 -13.5072908849 -8.942607156 5.7392907334
482 1 0.0 -12.729755125 -13.2291495866 15.7740112016
483 1 0.0 -12.7297551505 -10.2893385527 14.0703004193
484 1 0.0 -10.1838040745 -11.7592440917 16.3660166025
485 1 0.0 -12.7297551505 -10.2893385527 18.0697275225
486 2 0.0 -10.9613398599 -13.1059754884 14.9221557416
487 2 0.0 -8.6287326058 -11.7592440917 14.9221557416
488 2 0.0 -10.9613398344 -10.412512651 14.9221557416
489 2 0.0 -11.1746836308 -10.2893385527 19.5135883834
490 2 0.0 -14.4981703901 -10.1661644985 17.2178720625
491 2 0.0 -9.1929245947 -13.2291495866 17.2178720625
492 2 0.0 -11.9522193397 -11.88241819 17.2178720625
493 1 0.0 -15.2757061755 -5.8796220238 -16.3660166025
494 1 0.0 -12.7297550995 -7.3495275628 -18.0697275225
495 1 0.0 -15.27570615 -8.8194330578 -15.7740112016
496 1 0.0 -12.7297550995 -7.3495275628 -14.0703004193
497 2 0.0 -13.5072908849 -5.7564479696 -17.2178720625
498 2 0.0 -13.7206346303 -8.8194330578 -17.2178720625
499 2 0.0 -11.9522193651 -8.6962589595 -19.5135883834
500 2 0.0 -11.9522193906 -6.0027961221 -19.5135883834
501 2 0.0 -16.0532419099 -7.472701617 -17.2178720625
502 2 0.0 -14.4981704156 -7.2263534646 -14.9221557416
503 2 0.0 -16.8307776442 -5.8796220238 -14.9221557416
504 2 0.0 -14.4981703901 -4.5328906271 -14.9221557416
505 1 0.0 -15.2757061755 -5.8796220238 -6.5911460557
506 1 0.0 -15.27570615 -8.8194330578 -4.8874352734
507 1 0.0 -15.2757061755 -5.8796220238 -2.5917189525
508 1 0.0 -12.7297550995 -7.3495275628 -4.2954298725
509 1 0.0 -15.27570615 -8.8194330578 -1.9997135516
510 1 0.0 -12.7297550995 -7.3495275628 -0.2960027693
511 1 0.0 -15.27570615 -8.8194330578 -11.7745840984
512 1 0.0 -15.2757061755 -5.8796220238 -13.4782948807
513 1 0.0 -12.7297550995 -7.3495275628 -11.1825786975
514 1 0.0 -15.2757061755 -5.8796220238 -9.4788677775
515 1 0.0 -12.7297550995 -7.3495275628 -7.1831515943
516 1 0.0 -15.27570615 -8.8194330578 -8.8868623766
517 2 0.0 -13.5072908849 -5.7564479696 -3.4435744125
518 2 0.0 -13.7206346303 -8.8194330578 -3.4435744125
519 2 0.0 -11.9522193651 -8.6962589595 -5.7392907334
520 2 0.0 -14.2848266192 -7.3495275628 -5.7392907334
521 2 0.0 -11.9522193906 -6.0027961221 -5.7392907334
522 2 0.0 -16.0532419099 -7.472701617 -3.4435744125
523 2 0.0 -13.5072908849 -8.6962589595 -12.6264395584
524 2 0.0 -11.1746836308 -7.3495275628 -12.6264395584
525 2 0.0 -14.4981704156 -7.2263534646 -1.1478580916
526 2 0.0 -16.8307776442 -5.8796220238 -1.1478580916
527 2 0.0 -14.4981703901 -4.5328906271 -1.1478580916
528 2 0.0 -13.5072908594 -6.0027961221 -12.6264395584
529 2 0.0 -16.0532418844 -7.2263534646 -8.0350069166
530 2 0.0 -13.7206346558 -5.8796220238 -8.0350069166
531 2 0.0 -17.0441214151 -5.7564479696 -10.3307232375
532 2 0.0 -11.7388756197 -8.8194330578 -10.3307232375
533 2 0.0 -14.4981703647 -7.4727016611 -10.3307232375
534 2 0.0 -16.0532419099 -4.5328906271 -8.0350069166
535 1 0.0 -15.2757061755 -5.8796220238 7.1831515943
536 1 0.0 -15.27570615 -8.8194330578 8.8868623766
537 1 0.0 -15.2757061755 -5.8796220238 11.1825786975
538 1 0.0 -12.7297550995 -7.3495275628 9.4788677775
539 1 0.0 -15.27570615 -8.8194330578 11.7745840984
540 1 0.0 -12.7297550995 -7.3495275628 13.4782948807
541 1 0.0 -15.27570615 -8.8194330578 1.9997135516
542 1 0.0 -15.2757061755 -5.8796220238 0.2960027693
543 1 0.0 -12.7297550995 -7.3495275628 2.5917189525
544 1 0.0 -15.2757061755 -5.8796220238 4.2954298725
545 1 0.0 -12.7297550995 -7.3495275628 6.5911460557
546 1 0.0 -15.27570615 -8.8194330578 4.8874352734
547 2 0.0 -13.5072908849 -5.7564479696 10.3307232375
548 2 0.0 -13.7206346303 -8.8194330578 10.3307232375
549 2 0.0 -11.9522193651 -8.6962589595 8.0350069166
550 2 0.0 -14.2848266192 -7.3495275628 8.0350069166
551 2 0.0 -11.9522193906 -6.0027961221 8.0350069166
552 2 0.0 -16.0532419099 -7.472701617 10.3307232375
553 2 0.0 -13.5072908849 -8.6962589595 1.1478580916
554 2 0.0 -11.1746836308 -7.3495275628 1.1478580916
555 2 0.0 -14.4981704156 -7.2263534646 12.6264395584
556 2 0.0 -16.8307776442 -5.8796220238 12.6264395584
557 2 0.0 -14.4981703901 -4.5328906271 12.6264395584
558 2 0.0 -13.5072908594 -6.0027961221 1.1478580916
559 2 0.0 -16.0532418844 -7.2263534646 5.7392907334
560 2 0.0 -13.7206346558 -5.8796220238 5.7392907334
561 2 0.0 -17.0441214151 -5.7564479696 3.4435744125
562 2 0.0 -11.7388756197 -8.8194330578 3.4435744125
563 2 0.0 -14.4981703647 -7.4727016611 3.4435744125
564 2 0.0 -16.0532419099 -4.5328906271 5.7392907334
565 1 0.0 -15.27570615 -8.8194330578 15.7740112016