ITEM: TIMESTEP
0
ITEM: NUMBER OF ATOMS
10970
ITEM: BOX BOUNDS pp pp pp
-30.0 30.0
-30.0 30.0
-30.0 30.0
ITEM: ATOMS type x y z ChargeDensity
2 -17.0441214406 -23.6416622376 -5.7392907334 18.0
2 -19.5900724401 -22.1717567427 -1.1478580916 13.0
2 -16.2665856808 -24.9883936784 1.1478580916 4.0
1 -20.3676081745 -20.5786771495 -4.2954298725 -13.0
1 -20.3676081745 -20.5786771495 -0.2960027693 -8.0
1 -20.3676081745 -20.5786771495 -7.1831515943 -12.0
2 -21.1451439599 -18.9855975563 -3.4435744125 0.0
2 -19.5900724401 -21.9254085461 -5.7392907334 5.0
2 -19.5900724656 -19.2319457087 -5.7392907334 16.0
2 -22.1360234651 -17.7620402138 -1.1478580916 15.0
2 -21.3584877308 -19.1087716105 -8.0350069166 8.0
1 -22.9135592505 -19.1087716105 0.2960027693 -13.0
1 -20.3676081745 -20.5786771495 2.5917189525 -8.0
1 -20.3676081745 -20.5786771495 6.5911460557 -8.0
2 -19.5900724656 -19.2319457087 8.0350069166 19.0
2 -18.8125367058 -20.5786771495 1.1478580916 11.0
2 -21.1451439344 -19.2319457087 1.1478580916 6.0
2 -21.3584877308 -19.1087716105 5.7392907334 11.0
2 -19.3767286947 -22.0485826444 3.4435744125 3.0
1 -25.4595102755 -14.6990550816 -2.5917189525 -14.0
1 -22.9135591995 -16.1689606206 -4.2954298725 -18.0
1 -22.9135591995 -16.1689606206 -0.2960027693 -14.0
1 -22.9135591995 -16.1689606206 -7.1831515943 -20.0
2 -23.6910949849 -14.5758810274 -3.4435744125 -1.0
2 -23.9044387303 -17.6388661155 -3.4435744125 9.0
2 -22.1360234651 -17.5156920173 -5.7392907334 1.0
2 -24.4686307192 -16.1689606206 -5.7392907334 -5.0
2 -22.1360234906 -14.8222291798 -5.7392907334 11.0
2 -21.3584877308 -16.1689606206 -12.6264395584 5.0
2 -24.6819745156 -16.0457865223 -1.1478580916 2.0
2 -24.6819744901 -13.3523236849 -1.1478580916 9.0
2 -23.9044387558 -14.6990550816 -8.0350069166 6.0
2 -21.9226797197 -17.6388661155 -10.3307232375 0.0
1 -22.9135591995 -16.1689606206 9.4788677775 -10.0
1 -25.4595102755 -14.6990550816 0.2960027693 -13.0
1 -22.9135591995 -16.1689606206 2.5917189525 -12.0
1 -25.4595102755 -14.6990550816 4.2954298725 -12.0
1 -22.9135591995 -16.1689606206 6.5911460557 -14.0
2 -23.6910949849 -14.5758810274 10.3307232375 1.0
2 -22.1360234651 -17.5156920173 8.0350069166 6.0
2 -22.1360234906 -14.8222291798 8.0350069166 12.0
2 -23.6910949849 -17.5156920173 1.1478580916 1.0
2 -21.3584877308 -16.1689606206 1.1478580916 12.0
2 -23.6910949594 -14.8222291798 1.1478580916 9.0
2 -23.9044387558 -14.6990550816 5.7392907334 9.0
2 -21.9226797197 -17.6388661155 3.4435744125 3.0
2 -24.6819744647 -16.2921347189 3.4435744125 10.0
2 -26.2370460099 -13.3523236849 5.7392907334 2.0
1 -25.4595102245 -11.7592440917 -4.2954298725 -16.0
1 -25.4595102245 -11.7592440917 -0.2960027693 -14.0
1 -25.4595102245 -11.7592440917 -7.1831515943 -18.0
2 -26.2370460099 -10.1661644985 -3.4435744125 3.0
2 -26.4503897553 -13.2291495866 -3.4435744125 7.0
2 -24.6819744901 -13.1059754884 -5.7392907334 4.0
2 -24.6819745156 -10.412512651 -5.7392907334 10.0
2 -23.9044387558 -11.7592440917 -12.6264395584 7.0
2 -27.2279255406 -11.6360699935 -1.1478580916 8.0
2 -27.2279255151 -8.942607156 -1.1478580916 7.0
2 -26.4503897808 -10.2893385527 -8.0350069166 10.0
2 -24.4686307447 -13.2291495866 -10.3307232375 -2.0
1 -25.4595102245 -11.7592440917 9.4788677775 -14.0
1 -28.0054613005 -10.2893385527 0.2960027693 -5.0
1 -25.4595102245 -11.7592440917 2.5917189525 -14.0
1 -25.4595102245 -11.7592440917 6.5911460557 -14.0
2 -26.2370460099 -10.1661644985 10.3307232375 0.0
2 -24.6819744901 -13.1059754884 8.0350069166 8.0
2 -24.6819745156 -10.412512651 8.0350069166 7.0
2 -26.2370460099 -13.1059754884 1.1478580916 -2.0
2 -23.9044387558 -11.7592440917 1.1478580916 13.0
2 -26.2370459844 -10.412512651 1.1478580916 5.0
2 -26.4503897808 -10.2893385527 5.7392907334 11.0
2 -24.4686307447 -13.2291495866 3.4435744125 -3.0
2 -27.2279254897 -11.88241819 3.4435744125 12.0
1 -28.0054612495 -7.3495275628 -4.2954298725 -2.0
1 -28.0054612495 -7.3495275628 -0.2960027693 -3.0
1 -28.0054612495 -7.3495275628 -7.1831515943 -2.0
2 -28.7829970349 -5.7564479696 -3.4435744125 3.0
2 -27.2279255151 -8.6962589595 -5.7392907334 7.0
2 -27.2279255406 -6.0027961221 -5.7392907334 8.0
1 -28.0054612495 -7.3495275628 2.5917189525 -1.0
1 -28.0054612495 -7.3495275628 6.5911460557 -7.0
2 -27.2279255151 -8.6962589595 8.0350069166 8.0
2 -27.2279255406 -6.0027961221 8.0350069166 10.0
2 -26.4503897808 -7.3495275628 1.1478580916 17.0
2 -28.7829970094 -6.0027961221 1.1478580916 6.0
2 -27.0145817697 -8.8194330578 3.4435744125 2.0
2 -28.9963408058 -2.939811034 1.1478580916 4.0
2 -11.9522193651 -26.5814732716 -1.1478580916 14.0
1 -15.2757061755 -23.5184881393 -6.5911460557 -7.0
1 -15.2757061755 -23.5184881393 -2.5917189525 -15.0
1 -12.7297550995 -24.9883936784 -4.2954298725 -11.0
1 -12.7297550995 -24.9883936784 -0.2960027693 -15.0
1 -15.2757061755 -23.5184881393 -9.4788677775 -10.0
1 -12.7297550995 -24.9883936784 -7.1831515943 -10.0
2 -13.5072908849 -23.3953140852 -3.4435744125 4.0
2 -11.9522193651 -26.335125075 -5.7392907334 8.0
2 -14.2848266192 -24.9883936784 -5.7392907334 6.0
2 -11.9522193906 -23.6416622376 -5.7392907334 18.0
2 -14.4981704156 -24.8652195801 -1.1478580916 0.0
2 -16.8307776442 -23.5184881393 -1.1478580916 0.0
2 -14.4981703901 -22.1717567427 -1.1478580916 14.0
2 -13.7206346558 -23.5184881393 -8.0350069166 12.0
2 -16.0532419099 -22.1717567427 -8.0350069166 10.0
1 -15.2757061755 -23.5184881393 7.1831515943 -8.0
1 -12.7297550995 -24.9883936784 9.4788677775 -12.0
1 -15.2757061755 -23.5184881393 0.2960027693 -17.0
1 -12.7297550995 -24.9883936784 2.5917189525 -15.0
1 -15.2757061755 -23.5184881393 4.2954298725 -13.0
1 -12.7297550995 -24.9883936784 6.5911460557 -7.0
2 -13.5072908849 -23.3953140852 10.3307232375 1.0
2 -14.2848266192 -24.9883936784 8.0350069166 7.0
2 -11.9522193906 -23.6416622376 8.0350069166 17.0
2 -13.5072908849 -26.335125075 1.1478580916 -8.0
2 -11.1746836308 -24.9883936784 1.1478580916 5.0
2 -14.4981703901 -22.1717567427 12.6264395584 9.0
2 -13.5072908594 -23.6416622376 1.1478580916 3.0
2 -13.7206346558 -23.5184881393 5.7392907334 11.0
2 -17.0441214151 -23.3953140852 3.4435744125 4.0
2 -11.7388756197 -26.4582991733 3.4435744125 4.0
2 -14.4981703647 -25.1115677766 3.4435744125 12.0
2 -16.0532419099 -22.1717567427 5.7392907334 11.0
1 -15.2757061245 -20.5786771495 -14.0703004193 -10.0
2 -17.0441214151 -17.7620402138 -14.9221557416 10.0
1 -17.8216572005 -19.1087716105 -6.5911460557 -15.0
1 -17.821657175 -22.0485826444 -4.8874352734 -9.0
1 -17.8216572005 -19.1087716105 -2.5917189525 -15.0
1 -15.2757061245 -20.5786771495 -4.2954298725 -17.0
1 -17.821657175 -22.0485826444 -1.9997135516 -11.0
1 -15.2757061245 -20.5786771495 -0.2960027693 -19.0
1 -17.8216572005 -19.1087716105 -13.4782948807 -9.0
1 -15.2757061245 -20.5786771495 -11.1825786975 -9.0
1 -17.8216572005 -19.1087716105 -9.4788677775 -13.0
1 -15.2757061245 -20.5786771495 -7.1831515943 -15.0
1 -17.821657175 -22.0485826444 -8.8868623766 -9.0
2 -16.0532419099 -18.9855975563 -3.4435744125 12.0
2 -16.2665856553 -22.0485826444 -3.4435744125 7.0
2 -14.4981703901 -21.9254085461 -5.7392907334 9.0
2 -16.8307776442 -20.5786771495 -5.7392907334 9.0
2 -14.4981704156 -19.2319457087 -5.7392907334 12.0
2 -18.5991929349 -20.7018512036 -3.4435744125 8.0
2 -16.0532419099 -21.9254085461 -12.6264395584 1.0
2 -13.7206346558 -20.5786771495 -12.6264395584 13.0
2 -17.0441214406 -20.4555030512 -1.1478580916 9.0
2 -19.3767286692 -19.1087716105 -1.1478580916 8.0
2 -17.0441214151 -17.7620402138 -1.1478580916 12.0
2 -16.0532418844 -19.2319457087 -12.6264395584 10.0
2 -18.5991929094 -20.4555030512 -8.0350069166 2.0
2 -16.2665856808 -19.1087716105 -8.0350069166 16.0
2 -19.5900724401 -18.9855975563 -10.3307232375 5.0
2 -14.2848266447 -22.0485826444 -10.3307232375 10.0
2 -17.0441213897 -20.7018512477 -10.3307232375 19.0
2 -18.5991929349 -17.7620402138 -8.0350069166 7.0
1 -17.8216572005 -19.1087716105 7.1831515943 -12.0
1 -17.821657175 -22.0485826444 8.8868623766 -8.0
1 -17.8216572005 -19.1087716105 11.1825786975 -10.0
1 -15.2757061245 -20.5786771495 9.4788677775 -17.0
1 -15.2757061245 -20.5786771495 13.4782948807 -17.0
1 -17.821657175 -22.0485826444 1.9997135516 -13.0
1 -17.8216572005 -19.1087716105 0.2960027693 -15.0
1 -15.2757061245 -20.5786771495 2.5917189525 -19.0
1 -17.8216572005 -19.1087716105 4.2954298725 -15.0
1 -15.2757061245 -20.5786771495 6.5911460557 -13.0
1 -17.821657175 -22.0485826444 4.8874352734 -7.0
2 -16.0532419099 -18.9855975563 10.3307232375 5.0
2 -16.2665856553 -22.0485826444 10.3307232375 9.0
2 -14.4981703901 -21.9254085461 8.0350069166 8.0
2 -16.8307776442 -20.5786771495 8.0350069166 4.0
2 -14.4981704156 -19.2319457087 8.0350069166 12.0
2 -18.5991929349 -20.7018512036 10.3307232375 10.0
2 -16.0532419099 -21.9254085461 1.1478580916 2.0
2 -13.7206346558 -20.5786771495 1.1478580916 12.0
2 -17.0441214406 -20.4555030512 12.6264395584 4.0
2 -17.0441214151 -17.7620402138 12.6264395584 13.0
2 -16.0532418844 -19.2319457087 1.1478580916 12.0
2 -18.5991929094 -20.4555030512 5.7392907334 3.0
2 -16.2665856808 -19.1087716105 5.7392907334 14.0
2 -19.5900724401 -18.9855975563 3.4435744125 10.0
2 -14.2848266447 -22.0485826444 3.4435744125 5.0
2 -17.0441213897 -20.7018512477 3.4435744125 16.0
2 -18.5991929349 -17.7620402138 5.7392907334 10.0
1 -17.8216572005 -19.1087716105 14.0703004193 -12.0
2 -13.7206346558 -20.5786771495 14.9221557416 6.0
2 -16.0532418844 -19.2319457087 14.9221557416 2.0
1 -17.8216571495 -16.1689606206 -14.0703004193 -15.0
2 -18.5991929349 -14.5758810274 -17.2178720625 -1.0
2 -17.0441214406 -14.8222291798 -19.5135883834 9.0
2 -19.5900724656 -16.0457865223 -14.9221557416 3.0
2 -19.5900724401 -13.3523236849 -14.9221557416 10.0
1 -20.3676082255 -14.6990550816 -6.5911460557 -19.0
1 -20.3676082 -17.6388661155 -4.8874352734 -17.0
1 -20.3676082255 -14.6990550816 -2.5917189525 -21.0
1 -17.8216571495 -16.1689606206 -4.2954298725 -21.0
1 -20.3676082 -17.6388661155 -1.9997135516 -16.0
1 -17.8216571495 -16.1689606206 -0.2960027693 -21.0
1 -20.3676082 -17.6388661155 -11.7745840984 -14.0
1 -20.3676082255 -14.6990550816 -13.4782948807 -16.0
1 -17.8216571495 -16.1689606206 -11.1825786975 -17.0
1 -20.3676082255 -14.6990550816 -9.4788677775 -18.0
1 -17.8216571495 -16.1689606206 -7.1831515943 -21.0
1 -20.3676082 -17.6388661155 -8.8868623766 -15.0
2 -18.5991929349 -14.5758810274 -3.4435744125 12.0
2 -18.8125366803 -17.6388661155 -3.4435744125 13.0
2 -17.0441214151 -17.5156920173 -5.7392907334 12.0
2 -19.3767286692 -16.1689606206 -5.7392907334 9.0
2 -17.0441214406 -14.8222291798 -5.7392907334 12.0
2 -21.1451439599 -16.2921346748 -3.4435744125 6.0
2 -18.5991929349 -17.5156920173 -12.6264395584 2.0
2 -16.2665856808 -16.1689606206 -12.6264395584 16.0
2 -19.5900724656 -16.0457865223 -1.1478580916 9.0
2 -21.9226796942 -14.6990550816 -1.1478580916 6.0
2 -19.5900724401 -13.3523236849 -1.1478580916 12.0
2 -18.5991929094 -14.8222291798 -12.6264395584 4.0
2 -21.1451439344 -16.0457865223 -8.0350069166 -2.0
2 -18.8125367058 -14.6990550816 -8.0350069166 12.0
2 -22.1360234651 -14.5758810274 -10.3307232375 4.0
2 -16.8307776697 -17.6388661155 -10.3307232375 8.0
2 -19.5900724147 -16.2921347189 -10.3307232375 13.0
2 -21.1451439599 -13.3523236849 -8.0350069166 3.0
1 -20.3676082255 -14.6990550816 7.1831515943 -17.0
1 -20.3676082 -17.6388661155 8.8868623766 -8.0
1 -20.3676082255 -14.6990550816 11.1825786975 -10.0
1 -17.8216571495 -16.1689606206 9.4788677775 -17.0
1 -20.3676082 -17.6388661155 11.7745840984 -11.0
1 -17.8216571495 -16.1689606206 13.4782948807 -12.0
1 -20.3676082 -17.6388661155 1.9997135516 -14.0
1 -20.3676082255 -14.6990550816 0.2960027693 -21.0
1 -17.8216571495 -16.1689606206 2.5917189525 -21.0
1 -20.3676082255 -14.6990550816 4.2954298725 -19.0
1 -17.8216571495 -16.1689606206 6.5911460557 -21.0
1 -20.3676082 -17.6388661155 4.8874352734 -15.0
2 -18.5991929349 -14.5758810274 10.3307232375 12.0
2 -18.8125366803 -17.6388661155 10.3307232375 12.0
2 -17.0441214151 -17.5156920173 8.0350069166 11.0
2 -19.3767286692 -16.1689606206 8.0350069166 8.0
2 -17.0441214406 -14.8222291798 8.0350069166 12.0
2 -21.1451439599 -16.2921346748 10.3307232375 11.0
2 -18.5991929349 -17.5156920173 1.1478580916 12.0
2 -16.2665856808 -16.1689606206 1.1478580916 12.0
2 -19.5900724656 -16.0457865223 12.6264395584 13.0
2 -21.9226796942 -14.6990550816 12.6264395584 2.0
2 -19.5900724401 -13.3523236849 12.6264395584 10.0
2 -18.5991929094 -14.8222291798 1.1478580916 12.0
2 -21.1451439344 -16.0457865223 5.7392907334 4.0
2 -18.8125367058 -14.6990550816 5.7392907334 12.0
2 -22.1360234651 -14.5758810274 3.4435744125 7.0
2 -16.8307776697 -17.6388661155 3.4435744125 12.0
2 -19.5900724147 -16.2921347189 3.4435744125 11.0
2 -21.1451439599 -13.3523236849 5.7392907334 11.0
1 -20.3676082255 -14.6990550816 14.0703004193 -10.0
1 -17.8216571495 -16.1689606206 16.3660166025 -15.0
2 -18.5991929349 -17.5156920173 14.9221557416 -1.0
2 -16.2665856808 -16.1689606206 14.9221557416 6.0
2 -18.5991929094 -14.8222291798 14.9221557416 11.0
2 -16.8307776697 -17.6388661155 17.2178720625 -2.0
1 -20.3676081745 -11.7592440917 -18.0697275225 -10.0
1 -20.3676081745 -11.7592440917 -14.0703004193 -18.0
2 -21.1451439599 -10.1661644985 -17.2178720625 4.0
2 -19.5900724656 -10.412512651 -19.5135883834 10.0
2 -22.1360234906 -11.6360699935 -14.9221557416 6.0
2 -22.1360234651 -8.942607156 -14.9221557416 10.0
1 -22.9135592505 -10.2893385527 -6.5911460557 -17.0
1 -22.913559225 -13.2291495866 -4.8874352734 -16.0
1 -22.9135592505 -10.2893385527 -2.5917189525 -21.0
1 -20.3676081745 -11.7592440917 -4.2954298725 -21.0
1 -22.913559225 -13.2291495866 -1.9997135516 -17.0
1 -20.3676081745 -11.7592440917 -0.2960027693 -21.0
1 -22.913559225 -13.2291495866 -11.7745840984 -18.0
1 -22.9135592505 -10.2893385527 -13.4782948807 -14.0
1 -20.3676081745 -11.7592440917 -11.1825786975 -19.0
1 -22.9135592505 -10.2893385527 -9.4788677775 -16.0
1 -20.3676081745 -11.7592440917 -7.1831515943 -21.0
1 -22.913559225 -13.2291495866 -8.8868623766 -19.0
2 -21.1451439599 -10.1661644985 -3.4435744125 12.0
2 -21.3584877053 -13.2291495866 -3.4435744125 12.0
2 -19.5900724401 -13.1059754884 -5.7392907334 12.0
2 -21.9226796942 -11.7592440917 -5.7392907334 9.0
2 -19.5900724656 -10.412512651 -5.7392907334 12.0
2 -23.6910949849 -11.8824181459 -3.4435744125 4.0
2 -21.1451439599 -13.1059754884 -12.6264395584 1.0
2 -18.8125367058 -11.7592440917 -12.6264395584 14.0
2 -22.1360234906 -11.6360699935 -1.1478580916 12.0
2 -24.4686307192 -10.2893385527 -1.1478580916 6.0
2 -22.1360234651 -8.942607156 -1.1478580916 12.0
2 -21.1451439344 -10.412512651 -12.6264395584 4.0
2 -23.6910949594 -11.6360699935 -8.0350069166 2.0
2 -21.3584877308 -10.2893385527 -8.0350069166 12.0
2 -24.6819744901 -10.1661644985 -10.3307232375 8.0
2 -19.3767286947 -13.2291495866 -10.3307232375 9.0
2 -22.1360234397 -11.88241819 -10.3307232375 11.0
2 -23.6910949849 -8.942607156 -8.0350069166 7.0
1 -22.9135592505 -10.2893385527 7.1831515943 -19.0
1 -22.913559225 -13.2291495866 8.8868623766 -13.0
1 -22.9135592505 -10.2893385527 11.1825786975 -14.0
1 -20.3676081745 -11.7592440917 9.4788677775 -21.0
1 -22.913559225 -13.2291495866 11.7745840984 -12.0
1 -20.3676081745 -11.7592440917 13.4782948807 -14.0
1 -22.913559225 -13.2291495866 1.9997135516 -17.0
1 -22.9135592505 -10.2893385527 0.2960027693 -21.0
1 -20.3676081745 -11.7592440917 2.5917189525 -21.0
1 -22.9135592505 -10.2893385527 4.2954298725 -21.0
1 -20.3676081745 -11.7592440917 6.5911460557 -21.0
1 -22.913559225 -13.2291495866 4.8874352734 -16.0
2 -21.1451439599 -10.1661644985 10.3307232375 12.0
2 -21.3584877053 -13.2291495866 10.3307232375 12.0
2 -19.5900724401 -13.1059754884 8.0350069166 12.0
2 -21.9226796942 -11.7592440917 8.0350069166 9.0
2 -19.5900724656 -10.412512651 8.0350069166 12.0
2 -23.6910949849 -11.8824181459 10.3307232375 10.0
2 -21.1451439599 -13.1059754884 1.1478580916 12.0
2 -18.8125367058 -11.7592440917 1.1478580916 12.0
2 -22.1360234906 -11.6360699935 12.6264395584 9.0
2 -24.4686307192 -10.2893385527 12.6264395584 0.0
2 -22.1360234651 -8.942607156 12.6264395584 10.0
2 -21.1451439344 -10.412512651 1.1478580916 12.0
2 -23.6910949594 -11.6360699935 5.7392907334 2.0
2 -21.3584877308 -10.2893385527 5.7392907334 12.0
2 -24.6819744901 -10.1661644985 3.4435744125 9.0
2 -19.3767286947 -13.2291495866 3.4435744125 12.0
2 -22.1360234397 -11.88241819 3.4435744125 12.0
2 -23.6910949849 -8.942607156 5.7392907334 8.0
1 -22.9135592505 -10.2893385527 14.0703004193 -12.0
1 -20.3676081745 -11.7592440917 16.3660166025 -12.0
2 -21.1451439599 -13.1059754884 14.9221557416 0.0
2 -18.8125367058 -11.7592440917 14.9221557416 10.0
2 -21.1451439344 -10.412512651 14.9221557416 9.0
2 -19.3767286947 -13.2291495866 17.2178720625 0.0
1 -22.9135591995 -7.3495275628 -14.0703004193 -19.0
2 -23.6910949849 -5.7564479696 -17.2178720625 3.0
2 -24.6819745156 -7.2263534646 -14.9221557416 5.0
2 -24.6819744901 -4.5328906271 -14.9221557416 4.0
1 -25.4595102755 -5.8796220238 -6.5911460557 -11.0
1 -25.45951025 -8.8194330578 -4.8874352734 -15.0
1 -25.4595102755 -5.8796220238 -2.5917189525 -15.0
1 -22.9135591995 -7.3495275628 -4.2954298725 -21.0
1 -25.45951025 -8.8194330578 -1.9997135516 -14.0
1 -22.9135591995 -7.3495275628 -0.2960027693 -21.0
1 -25.45951025 -8.8194330578 -11.7745840984 -14.0
1 -25.4595102755 -5.8796220238 -13.4782948807 -11.0
1 -22.9135591995 -7.3495275628 -11.1825786975 -15.0
1 -25.4595102755 -5.8796220238 -9.4788677775 -11.0
1 -22.9135591995 -7.3495275628 -7.1831515943 -21.0
1 -25.45951025 -8.8194330578 -8.8868623766 -11.0
2 -23.6910949849 -5.7564479696 -3.4435744125 12.0
2 -23.9044387303 -8.8194330578 -3.4435744125 11.0
2 -22.1360234651 -8.6962589595 -5.7392907334 12.0
2 -24.4686307192 -7.3495275628 -5.7392907334 9.0
2 -22.1360234906 -6.0027961221 -5.7392907334 12.0
2 -26.2370460099 -7.472701617 -3.4435744125 7.0
2 -23.6910949849 -8.6962589595 -12.6264395584 5.0
2 -21.3584877308 -7.3495275628 -12.6264395584 14.0
2 -24.6819745156 -7.2263534646 -1.1478580916 11.0
2 -27.0145817442 -5.8796220238 -1.1478580916 3.0
2 -24.6819744901 -4.5328906271 -1.1478580916 12.0
2 -23.6910949594 -6.0027961221 -12.6264395584 5.0
2 -26.2370459844 -7.2263534646 -8.0350069166 8.0
2 -23.9044387558 -5.8796220238 -8.0350069166 14.0
2 -27.2279255151 -5.7564479696 -10.3307232375 13.0
2 -21.9226797197 -8.8194330578 -10.3307232375 9.0
2 -24.6819744647 -7.4727016611 -10.3307232375 12.0
2 -26.2370460099 -4.5328906271 -8.0350069166 9.0
1 -25.4595102755 -5.8796220238 7.1831515943 -14.0
1 -25.45951025 -8.8194330578 8.8868623766 -12.0
1 -25.4595102755 -5.8796220238 11.1825786975 -10.0
1 -22.9135591995 -7.3495275628 9.4788677775 -21.0
1 -25.45951025 -8.8194330578 11.7745840984 -11.0
1 -22.9135591995 -7.3495275628 13.4782948807 -10.0
1 -25.45951025 -8.8194330578 1.9997135516 -16.0
1 -25.4595102755 -5.8796220238 0.2960027693 -15.0
1 -22.9135591995 -7.3495275628 2.5917189525 -21.0
1 -25.4595102755 -5.8796220238 4.2954298725 -13.0
1 -22.9135591995 -7.3495275628 6.5911460557 -21.0
1 -25.45951025 -8.8194330578 4.8874352734 -15.0
2 -23.6910949849 -5.7564479696 10.3307232375 8.0
2 -23.9044387303 -8.8194330578 10.3307232375 11.0
2 -22.1360234651 -8.6962589595 8.0350069166 12.0
2 -24.4686307192 -7.3495275628 8.0350069166 6.0
2 -22.1360234906 -6.0027961221 8.0350069166 12.0
2 -26.2370460099 -7.472701617 10.3307232375 8.0
2 -23.6910949849 -8.6962589595 1.1478580916 12.0
2 -21.3584877308 -7.3495275628 1.1478580916 12.0
2 -24.6819745156 -7.2263534646 12.6264395584 9.0
2 -24.6819744901 -4.5328906271 12.6264395584 12.0
2 -23.6910949594 -6.0027961221 1.1478580916 12.0
2 -26.2370459844 -7.2263534646 5.7392907334 4.0
2 -23.9044387558 -5.8796220238 5.7392907334 12.0
2 -27.2279255151 -5.7564479696 3.4435744125 6.0
2 -21.9226797197 -8.8194330578 3.4435744125 12.0
2 -24.6819744647 -7.4727016611 3.4435744125 13.0
2 -26.2370460099 -4.5328906271 5.7392907334 11.0
1 -25.4595102755 -5.8796220238 14.0703004193 -8.0
1 -22.9135591995 -7.3495275628 16.3660166025 -11.0
2 -23.6910949849 -8.6962589595 14.9221557416 4.0
2 -21.3584877308 -7.3495275628 14.9221557416 12.0
2 -23.6910949594 -6.0027961221 14.9221557416 9.0
2 -21.9226797197 -8.8194330578 17.2178720625 -3.0
1 -25.4595102245 -2.939811034 -14.0703004193 -18.0
1 -28.0054613005 -1.4699054949 -6.5911460557 -2.0
1 -28.005461275 -4.4097165289 -4.8874352734 -2.0
1 -28.0054613005 -1.4699054949 -2.5917189525 -16.0
1 -25.4595102245 -2.939811034 -4.2954298725 -17.0
1 -28.005461275 -4.4097165289 -1.9997135516 -10.0
1 -25.4595102245 -2.939811034 -0.2960027693 -19.0
1 -25.4595102245 -2.939811034 -11.1825786975 -11.0
1 -28.0054613005 -1.4699054949 -9.4788677775 -3.0
1 -25.4595102245 -2.939811034 -7.1831515943 -13.0
1 -28.005461275 -4.4097165289 -8.8868623766 -3.0
2 -26.2370460099 -1.3467314408 -3.4435744125 7.0
2 -26.4503897553 -4.4097165289 -3.4435744125 16.0
2 -24.6819744901 -4.2865424306 -5.7392907334 14.0
2 -27.0145817442 -2.939811034 -5.7392907334 6.0
2 -24.6819745156 -1.5930795932 -5.7392907334 14.0
2 -28.7829970349 -3.0629850881 -3.4435744125 0.0
2 -26.2370460099 -4.2865424306 -12.6264395584 5.0
2 -23.9044387558 -2.939811034 -12.6264395584 9.0
2 -27.2279255406 -2.8166369357 -1.1478580916 -3.0
2 -29.5605327692 -1.4699054949 -1.1478580916 -12.0
2 -27.2279255151 -0.1231740983 -1.1478580916 -7.0
2 -26.2370459844 -1.5930795932 -12.6264395584 0.0
2 -26.4503897808 -1.4699054949 -8.0350069166 17.0
2 -24.4686307447 -4.4097165289 -10.3307232375 8.0
2 -27.2279254897 -3.0629851322 -10.3307232375 9.0
2 -28.7829970349 -0.1231740983 -8.0350069166 6.0
1 -28.0054613005 -1.4699054949 7.1831515943 -3.0
1 -28.005461275 -4.4097165289 8.8868623766 -5.0
1 -25.4595102245 -2.939811034 9.4788677775 -11.0
1 -25.4595102245 -2.939811034 13.4782948807 -7.0
1 -28.005461275 -4.4097165289 1.9997135516 -10.0
1 -28.0054613005 -1.4699054949 0.2960027693 -18.0
1 -25.4595102245 -2.939811034 2.5917189525 -17.0
1 -28.0054613005 -1.4699054949 4.2954298725 -10.0
1 -25.4595102245 -2.939811034 6.5911460557 -15.0
1 -28.005461275 -4.4097165289 4.8874352734 -2.0
2 -26.2370460099 -1.3467314408 10.3307232375 7.0
2 -26.4503897553 -4.4097165289 10.3307232375 18.0
2 -24.6819744901 -4.2865424306 8.0350069166 13.0
2 -27.0145817442 -2.939811034 8.0350069166 5.0
2 -24.6819745156 -1.5930795932 8.0350069166 11.0
2 -26.2370460099 -4.2865424306 1.1478580916 5.0
2 -23.9044387558 -2.939811034 1.1478580916 12.0
2 -26.2370459844 -1.5930795932 1.1478580916 5.0
2 -28.7829970094 -2.8166369357 5.7392907334 6.0
2 -26.4503897808 -1.4699054949 5.7392907334 18.0
2 -24.4686307447 -4.4097165289 3.4435744125 12.0
2 -27.2279254897 -3.0629851322 3.4435744125 1.0
2 -28.7829970349 -0.1231740983 5.7392907334 6.0
2 -23.9044387558 -2.939811034 14.9221557416 18.0
1 -28.0054612495 1.4699054949 -4.2954298725 -12.0
1 -28.0054612495 1.4699054949 -0.2960027693 -16.0
1 -28.0054612495 1.4699054949 -7.1831515943 -3.0
2 -28.7829970349 3.0629850881 -3.4435744125 2.0
2 -28.9963407803 0.0 -3.4435744125 6.0
2 -27.2279255151 0.1231740983 -5.7392907334 5.0
2 -27.2279255406 2.8166369357 -5.7392907334 7.0
2 -26.4503897808 1.4699054949 -12.6264395584 9.0
2 -29.7738765656 1.5930795932 -1.1478580916 -3.0
2 -27.0145817697 0.0 -10.3307232375 1.0
1 -28.0054612495 1.4699054949 9.4788677775 -3.0
1 -28.0054612495 1.4699054949 2.5917189525 -14.0
1 -28.0054612495 1.4699054949 6.5911460557 -4.0
2 -27.2279255151 0.1231740983 8.0350069166 10.0
2 -27.2279255406 2.8166369357 8.0350069166 8.0
2 -28.7829970349 0.1231740983 1.1478580916 -8.0
2 -26.4503897808 1.4699054949 1.1478580916 10.0
2 -28.7829970094 2.8166369357 1.1478580916 -8.0
2 -28.9963408058 2.939811034 5.7392907334 16.0
2 -27.0145817697 0.0 3.4435744125 -2.0
2 -28.9963408058 5.8796220238 1.1478580916 9.0
1 -7.6378531005 -27.9282046682 -6.5911460557 -6.0
1 -7.6378531005 -27.9282046682 -2.5917189525 -3.0
1 -5.0919020245 -29.3981102072 -0.2960027693 -8.0
2 -5.8694378099 -27.8050306141 -3.4435744125 2.0
2 -4.3143663156 -28.0513787665 -5.7392907334 7.0
2 -9.1929245692 -27.9282046682 -1.1478580916 9.0
2 -6.8603173151 -26.5814732716 -1.1478580916 20.0
2 -6.0827815808 -27.9282046682 -8.0350069166 9.0
2 -8.4153888349 -26.5814732716 -8.0350069166 10.0
1 -7.6378531005 -27.9282046682 7.1831515943 -5.0
1 -7.6378531005 -27.9282046682 0.2960027693 -5.0
1 -7.6378531005 -27.9282046682 4.2954298725 -5.0
2 -4.3143663156 -28.0513787665 8.0350069166 12.0
2 -3.5368305558 -29.3981102072 1.1478580916 8.0
2 -5.8694377844 -28.0513787665 1.1478580916 10.0
2 -6.0827815808 -27.9282046682 5.7392907334 10.0
2 -9.4062683401 -27.8050306141 3.4435744125 4.0
2 -8.4153888349 -26.5814732716 5.7392907334 12.0
1 -7.6378530495 -24.9883936784 -14.0703004193 -8.0
2 -9.4062683401 -22.1717567427 -14.9221557416 18.0
1 -10.1838041255 -23.5184881393 -6.5911460557 -15.0
1 -10.1838041 -26.4582991733 -4.8874352734 -7.0
1 -10.1838041255 -23.5184881393 -2.5917189525 -17.0
1 -7.6378530495 -24.9883936784 -4.2954298725 -13.0
1 -10.1838041 -26.4582991733 -1.9997135516 -9.0
1 -7.6378530495 -24.9883936784 -0.2960027693 -15.0
1 -10.1838041255 -23.5184881393 -13.4782948807 -7.0
1 -7.6378530495 -24.9883936784 -11.1825786975 -10.0
1 -10.1838041255 -23.5184881393 -9.4788677775 -11.0
1 -7.6378530495 -24.9883936784 -7.1831515943 -14.0
1 -10.1838041 -26.4582991733 -8.8868623766 -8.0
2 -8.4153888349 -23.3953140852 -3.4435744125 12.0
2 -8.6287325803 -26.4582991733 -3.4435744125 10.0
2 -6.8603173151 -26.335125075 -5.7392907334 4.0
2 -9.1929245692 -24.9883936784 -5.7392907334 11.0
2 -6.8603173406 -23.6416622376 -5.7392907334 12.0
2 -10.9613398599 -25.1115677325 -3.4435744125 9.0
2 -6.0827815808 -24.9883936784 -12.6264395584 9.0
2 -9.4062683656 -24.8652195801 -1.1478580916 7.0
2 -11.7388755942 -23.5184881393 -1.1478580916 7.0
2 -9.4062683401 -22.1717567427 -1.1478580916 12.0
2 -8.4153888094 -23.6416622376 -12.6264395584 12.0
2 -10.9613398344 -24.8652195801 -8.0350069166 5.0
2 -8.6287326058 -23.5184881393 -8.0350069166 13.0
2 -11.9522193651 -23.3953140852 -10.3307232375 7.0
2 -6.6469735697 -26.4582991733 -10.3307232375 8.0
2 -9.4062683147 -25.1115677766 -10.3307232375 18.0
2 -10.9613398599 -22.1717567427 -8.0350069166 11.0
1 -10.1838041255 -23.5184881393 7.1831515943 -13.0
1 -10.1838041 -26.4582991733 8.8868623766 -5.0
1 -10.1838041255 -23.5184881393 11.1825786975 -11.0
1 -7.6378530495 -24.9883936784 9.4788677775 -11.0
1 -7.6378530495 -24.9883936784 13.4782948807 -11.0
1 -10.1838041 -26.4582991733 1.9997135516 -13.0
1 -10.1838041255 -23.5184881393 0.2960027693 -19.0
1 -7.6378530495 -24.9883936784 2.5917189525 -15.0
1 -10.1838041255 -23.5184881393 4.2954298725 -17.0
1 -7.6378530495 -24.9883936784 6.5911460557 -11.0
1 -10.1838041 -26.4582991733 4.8874352734 -7.0
2 -8.4153888349 -23.3953140852 10.3307232375 8.0
2 -8.6287325803 -26.4582991733 10.3307232375 13.0
2 -6.8603173151 -26.335125075 8.0350069166 8.0
2 -9.1929245692 -24.9883936784 8.0350069166 9.0
2 -6.8603173406 -23.6416622376 8.0350069166 14.0
2 -10.9613398599 -25.1115677325 10.3307232375 9.0
2 -8.4153888349 -26.335125075 1.1478580916 5.0
2 -6.0827815808 -24.9883936784 1.1478580916 11.0
2 -9.4062683656 -24.8652195801 12.6264395584 5.0
2 -11.7388755942 -23.5184881393 12.6264395584 0.0
2 -9.4062683401 -22.1717567427 12.6264395584 9.0
2 -8.4153888094 -23.6416622376 1.1478580916 12.0
2 -10.9613398344 -24.8652195801 5.7392907334 8.0
2 -8.6287326058 -23.5184881393 5.7392907334 14.0
2 -11.9522193651 -23.3953140852 3.4435744125 7.0
2 -6.6469735697 -26.4582991733 3.4435744125 7.0
2 -9.4062683147 -25.1115677766 3.4435744125 16.0
2 -10.9613398599 -22.1717567427 5.7392907334 14.0
1 -10.1838041255 -23.5184881393 14.0703004193 -18.0
2 -6.0827815808 -24.9883936784 14.9221557416 5.0
2 -8.4153888094 -23.6416622376 14.9221557416 1.0
1 -12.7297551505 -19.1087716105 -16.3660166025 -14.0
1 -10.1838040745 -20.5786771495 -18.0697275225 -10.0
1 -10.1838040745 -20.5786771495 -14.0703004193 -11.0
2 -10.9613398599 -18.9855975563 -17.2178720625 0.0
2 -9.4062683656 -19.2319457087 -19.5135883834 12.0
2 -11.9522193906 -20.4555030512 -14.9221557416 7.0
2 -14.2848266192 -19.1087716105 -14.9221557416 7.0
2 -11.9522193651 -17.7620402138 -14.9221557416 15.0
1 -12.7297551505 -19.1087716105 -6.5911460557 -21.0
1 -12.729755125 -22.0485826444 -4.8874352734 -17.0
1 -12.7297551505 -19.1087716105 -2.5917189525 -21.0
1 -10.1838040745 -20.5786771495 -4.2954298725 -21.0
1 -12.729755125 -22.0485826444 -1.9997135516 -17.0
1 -10.1838040745 -20.5786771495 -0.2960027693 -21.0
1 -12.729755125 -22.0485826444 -11.7745840984 -13.0
1 -12.7297551505 -19.1087716105 -13.4782948807 -14.0
1 -10.1838040745 -20.5786771495 -11.1825786975 -17.0
1 -12.7297551505 -19.1087716105 -9.4788677775 -21.0
1 -10.1838040745 -20.5786771495 -7.1831515943 -21.0
1 -12.729755125 -22.0485826444 -8.8868623766 -12.0
2 -10.9613398599 -18.9855975563 -3.4435744125 12.0
2 -11.1746836053 -22.0485826444 -3.4435744125 12.0
2 -9.4062683401 -21.9254085461 -5.7392907334 12.0
2 -11.7388755942 -20.5786771495 -5.7392907334 12.0
2 -9.4062683656 -19.2319457087 -5.7392907334 12.0
2 -13.5072908849 -20.7018512036 -3.4435744125 12.0
2 -10.9613398599 -21.9254085461 -12.6264395584 6.0
2 -8.6287326058 -20.5786771495 -12.6264395584 16.0
2 -11.9522193906 -20.4555030512 -1.1478580916 12.0
2 -14.2848266192 -19.1087716105 -1.1478580916 12.0
2 -11.9522193651 -17.7620402138 -1.1478580916 12.0
2 -10.9613398344 -19.2319457087 -12.6264395584 11.0
2 -13.5072908594 -20.4555030512 -8.0350069166 12.0
2 -11.1746836308 -19.1087716105 -8.0350069166 12.0
2 -14.4981703901 -18.9855975563 -10.3307232375 9.0
2 -9.1929245947 -22.0485826444 -10.3307232375 10.0
2 -11.9522193397 -20.7018512477 -10.3307232375 13.0
2 -13.5072908849 -17.7620402138 -8.0350069166 12.0
1 -12.7297551505 -19.1087716105 7.1831515943 -21.0
1 -12.729755125 -22.0485826444 8.8868623766 -16.0
1 -12.7297551505 -19.1087716105 11.1825786975 -21.0
1 -10.1838040745 -20.5786771495 9.4788677775 -21.0
1 -12.729755125 -22.0485826444 11.7745840984 -17.0
1 -10.1838040745 -20.5786771495 13.4782948807 -20.0
1 -12.729755125 -22.0485826444 1.9997135516 -21.0
1 -12.7297551505 -19.1087716105 0.2960027693 -21.0
1 -10.1838040745 -20.5786771495 2.5917189525 -21.0
1 -12.7297551505 -19.1087716105 4.2954298725 -21.0