# LAMMPS data file written by Ovito 3.10.6

360 atoms
2 atom types

-10.0 10.0 xlo xhi
-10.0 10.0 ylo yhi
-10.0 10.0 zlo zhi

Masses

1 55.845  # Fe3+
2 15.9994  # O2-

Atoms  # atomic

1 1 -5.0919020755 -5.8796220238 -2.5917189525
2 1 -2.5459509995 -7.3495275628 -4.2954298725
3 1 -2.5459509995 -7.3495275628 -0.2960027693
4 2 -3.3234867849 -5.7564479696 -3.4435744125
5 2 -1.7684152906 -6.0027961221 -5.7392907334
6 2 -4.3143663156 -7.2263534646 -1.1478580916
7 2 -6.6469735442 -5.8796220238 -1.1478580916
8 2 -4.3143662901 -4.5328906271 -1.1478580916
9 1 -5.0919020755 -5.8796220238 0.2960027693
10 1 -2.5459509995 -7.3495275628 2.5917189525
11 1 -5.0919020755 -5.8796220238 4.2954298725
12 2 -3.3234867849 -8.6962589595 1.1478580916
13 2 -0.9908795308 -7.3495275628 1.1478580916
14 2 -3.3234867594 -6.0027961221 1.1478580916
15 2 -3.5368305558 -5.8796220238 5.7392907334
16 2 -6.8603173151 -5.7564479696 3.4435744125
17 2 -4.3143662647 -7.4727016611 3.4435744125
18 2 -5.8694378099 -4.5328906271 5.7392907334
19 1 -7.6378531005 -1.4699054949 -2.5917189525
20 1 -5.0919020245 -2.939811034 -4.2954298725
21 1 -7.637853075 -4.4097165289 -1.9997135516
22 1 -5.0919020245 -2.939811034 -0.2960027693
23 1 -5.0919020245 -2.939811034 -7.1831515943
24 2 -5.8694378099 -1.3467314408 -3.4435744125
25 2 -6.0827815553 -4.4097165289 -3.4435744125
26 2 -4.3143662901 -4.2865424306 -5.7392907334
27 2 -6.6469735442 -2.939811034 -5.7392907334
28 2 -4.3143663156 -1.5930795932 -5.7392907334
29 2 -6.8603173406 -2.8166369357 -1.1478580916
30 2 -9.1929245692 -1.4699054949 -1.1478580916
31 2 -6.8603173151 -0.1231740983 -1.1478580916
32 1 -7.637853075 -4.4097165289 1.9997135516
33 1 -7.6378531005 -1.4699054949 0.2960027693
34 1 -5.0919020245 -2.939811034 2.5917189525
35 1 -7.6378531005 -1.4699054949 4.2954298725
36 1 -5.0919020245 -2.939811034 6.5911460557
37 2 -4.3143663156 -1.5930795932 8.0350069166
38 2 -5.8694378099 -4.2865424306 1.1478580916
39 2 -3.5368305558 -2.939811034 1.1478580916
40 2 -5.8694377844 -1.5930795932 1.1478580916
41 2 -6.0827815808 -1.4699054949 5.7392907334
42 2 -4.1010225447 -4.4097165289 3.4435744125
43 2 -6.8603172897 -3.0629851322 3.4435744125
44 1 -7.6378530495 1.4699054949 -4.2954298725
45 1 -7.6378530495 1.4699054949 -0.2960027693
46 2 -8.6287325803 0.0 -3.4435744125
47 2 -6.8603173151 0.1231740983 -5.7392907334
48 2 -6.8603173406 2.8166369357 -5.7392907334
49 1 -7.6378530495 1.4699054949 2.5917189525
50 2 -8.4153888349 0.1231740983 1.1478580916
51 2 -6.0827815808 1.4699054949 1.1478580916
52 2 -8.4153888094 2.8166369357 1.1478580916
53 2 -6.6469735697 0.0 3.4435744125
54 1 -2.5459511529e-08 -5.8796220238 -6.5911460557
55 1 -2.5459511529e-08 -5.8796220238 -2.5917189525
56 1 2.5459510505 -7.3495275628 -4.2954298725
57 1 -1.7763568394e-15 -8.8194330578 -1.9997135516
58 1 2.5459510505 -7.3495275628 -0.2960027693
59 2 1.7684152651 -5.7564479696 -3.4435744125
60 2 0.9908795308 -7.3495275628 -5.7392907334
61 2 3.3234867594 -6.0027961221 -5.7392907334
62 2 -0.7775357599 -7.472701617 -3.4435744125
63 2 0.7775357344 -7.2263534646 -1.1478580916
64 2 -1.5550714942 -5.8796220238 -1.1478580916
65 2 0.7775357599 -4.5328906271 -1.1478580916
66 2 -0.7775357599 -4.5328906271 -8.0350069166
67 1 -2.5459511529e-08 -5.8796220238 7.1831515943
68 1 -1.7763568394e-15 -8.8194330578 1.9997135516
69 1 -2.5459511529e-08 -5.8796220238 0.2960027693
70 1 2.5459510505 -7.3495275628 2.5917189525
71 1 -2.5459511529e-08 -5.8796220238 4.2954298725
72 2 1.7684152651 -8.6962589595 1.1478580916
73 2 4.1010225192 -7.3495275628 1.1478580916
74 2 1.7684152906 -6.0027961221 1.1478580916
75 2 -0.7775357344 -7.2263534646 5.7392907334
76 2 1.5550714942 -5.8796220238 5.7392907334
77 2 -1.7684152651 -5.7564479696 3.4435744125
78 2 0.7775357853 -7.4727016611 3.4435744125
79 2 -0.7775357599 -4.5328906271 5.7392907334
80 1 -2.5459510505 -1.4699054949 -6.5911460557
81 1 -2.545951025 -4.4097165289 -4.8874352734
82 1 -2.5459510505 -1.4699054949 -2.5917189525
83 1 2.5459509612e-08 -2.939811034 -4.2954298725
84 1 -2.545951025 -4.4097165289 -1.9997135516
85 1 2.5459509612e-08 -2.939811034 -0.2960027693
86 1 -2.5459510505 -1.4699054949 -9.4788677775
87 1 2.5459509612e-08 -2.939811034 -7.1831515943
88 2 -0.7775357599 -1.3467314408 -3.4435744125
89 2 -0.9908795053 -4.4097165289 -3.4435744125
90 2 0.7775357599 -4.2865424306 -5.7392907334
91 2 -1.5550714942 -2.939811034 -5.7392907334
92 2 0.7775357344 -1.5930795932 -5.7392907334
93 2 -3.3234867849 -3.0629850881 -3.4435744125
94 2 -1.7684152906 -2.8166369357 -1.1478580916
95 2 -4.1010225192 -1.4699054949 -1.1478580916
96 2 -1.7684152651 -0.1231740983 -1.1478580916
97 2 -3.3234867594 -2.8166369357 -8.0350069166
98 2 -0.9908795308 -1.4699054949 -8.0350069166
99 2 -3.3234867849 -0.1231740983 -8.0350069166
100 1 -2.5459510505 -1.4699054949 7.1831515943
101 1 2.5459509612e-08 -2.939811034 9.4788677775
102 1 -2.545951025 -4.4097165289 1.9997135516
103 1 -2.5459510505 -1.4699054949 0.2960027693
104 1 2.5459509612e-08 -2.939811034 2.5917189525
105 1 -2.5459510505 -1.4699054949 4.2954298725
106 1 2.5459509612e-08 -2.939811034 6.5911460557
107 1 -2.545951025 -4.4097165289 4.8874352734
108 2 0.7775357599 -4.2865424306 8.0350069166
109 2 -1.5550714942 -2.939811034 8.0350069166
110 2 0.7775357344 -1.5930795932 8.0350069166
111 2 -0.7775357599 -4.2865424306 1.1478580916
112 2 1.5550714942 -2.939811034 1.1478580916
113 2 -0.7775357344 -1.5930795932 1.1478580916
114 2 -3.3234867594 -2.8166369357 5.7392907334
115 2 -0.9908795308 -1.4699054949 5.7392907334
116 2 -4.3143662901 -1.3467314408 3.4435744125
117 2 0.9908795053 -4.4097165289 3.4435744125
118 2 -1.7684152397 -3.0629851322 3.4435744125
119 2 -3.3234867849 -0.1231740983 5.7392907334
120 1 -5.0919020755 2.939811034 -6.5911460557
121 1 -5.09190205 0.0 -4.8874352734
122 1 -5.0919020755 2.939811034 -2.5917189525
123 1 -2.5459509995 1.4699054949 -4.2954298725
124 1 -5.09190205 0.0 -1.9997135516
125 1 -2.5459509995 1.4699054949 -0.2960027693
126 1 -2.5459509995 1.4699054949 -7.1831515943
127 2 -3.3234867849 3.0629850881 -3.4435744125
128 2 -3.5368305303 0.0 -3.4435744125
129 2 -1.7684152651 0.1231740983 -5.7392907334
130 2 -4.1010225192 1.4699054949 -5.7392907334
131 2 -1.7684152906 2.8166369357 -5.7392907334
132 2 -5.8694378099 1.3467314408 -3.4435744125
133 2 -4.3143663156 1.5930795932 -1.1478580916
134 2 -6.6469735442 2.939811034 -1.1478580916
135 2 -4.3143662901 4.2865424306 -1.1478580916
136 2 -3.5368305558 2.939811034 -8.0350069166
137 1 -5.0919020755 2.939811034 7.1831515943
138 1 -2.5459509995 1.4699054949 9.4788677775
139 1 -5.09190205 0.0 1.9997135516
140 1 -5.0919020755 2.939811034 0.2960027693
141 1 -2.5459509995 1.4699054949 2.5917189525
142 1 -5.0919020755 2.939811034 4.2954298725
143 1 -2.5459509995 1.4699054949 6.5911460557
144 1 -5.09190205 0.0 4.8874352734
145 2 -1.7684152651 0.1231740983 8.0350069166
146 2 -4.1010225192 1.4699054949 8.0350069166
147 2 -1.7684152906 2.8166369357 8.0350069166
148 2 -3.3234867849 0.1231740983 1.1478580916
149 2 -0.9908795308 1.4699054949 1.1478580916
150 2 -3.3234867594 2.8166369357 1.1478580916
151 2 -5.8694377844 1.5930795932 5.7392907334
152 2 -3.5368305558 2.939811034 5.7392907334
153 2 -6.8603173151 3.0629850881 3.4435744125
154 2 -1.5550715197 0.0 3.4435744125
155 2 -4.3143662647 1.3467313967 3.4435744125
156 2 -5.8694378099 4.2865424306 5.7392907334
157 1 -5.0919020245 5.8796220238 -4.2954298725
158 1 -7.637853075 4.4097165289 -1.9997135516
159 1 -5.0919020245 5.8796220238 -0.2960027693
160 2 -6.0827815553 4.4097165289 -3.4435744125
161 2 -4.3143662901 4.5328906271 -5.7392907334
162 2 -6.8603173406 6.0027961221 -1.1478580916
163 1 -7.637853075 4.4097165289 1.9997135516
164 1 -5.0919020245 5.8796220238 2.5917189525
165 2 -5.8694378099 4.5328906271 1.1478580916
166 2 -3.5368305558 5.8796220238 1.1478580916
167 2 -5.8694377844 7.2263534646 1.1478580916
168 2 -4.1010225447 4.4097165289 3.4435744125
169 2 -6.8603172897 5.7564479255 3.4435744125
170 1 5.0919020245 -5.8796220238 -2.5917189525
171 2 4.3143662901 -7.472701617 -3.4435744125
172 2 5.8694377844 -7.2263534646 -1.1478580916
173 2 3.5368305558 -5.8796220238 -1.1478580916
174 2 5.8694378099 -4.5328906271 -1.1478580916
175 1 5.0919020245 -5.8796220238 0.2960027693
176 1 5.0919020245 -5.8796220238 4.2954298725
177 2 6.8603173406 -6.0027961221 1.1478580916
178 2 3.3234867849 -5.7564479696 3.4435744125
179 2 4.3143662901 -4.5328906271 5.7392907334
180 1 2.5459509995 -1.4699054949 -6.5911460557
181 1 2.545951025 -4.4097165289 -4.8874352734
182 1 2.5459509995 -1.4699054949 -2.5917189525
183 1 5.0919020755 -2.939811034 -4.2954298725
184 1 2.545951025 -4.4097165289 -1.9997135516
185 1 5.0919020755 -2.939811034 -0.2960027693
186 1 2.5459509995 -1.4699054949 -9.4788677775
187 1 5.0919020755 -2.939811034 -7.1831515943
188 2 4.3143662901 -1.3467314408 -3.4435744125
189 2 4.1010225447 -4.4097165289 -3.4435744125
190 2 5.8694378099 -4.2865424306 -5.7392907334
191 2 3.5368305558 -2.939811034 -5.7392907334
192 2 5.8694377844 -1.5930795932 -5.7392907334
193 2 1.7684152651 -3.0629850881 -3.4435744125
194 2 3.3234867594 -2.8166369357 -1.1478580916
195 2 0.9908795308 -1.4699054949 -1.1478580916
196 2 3.3234867849 -0.1231740983 -1.1478580916
197 2 1.7684152906 -2.8166369357 -8.0350069166
198 2 4.1010225192 -1.4699054949 -8.0350069166
199 2 1.7684152651 -0.1231740983 -8.0350069166
200 1 2.5459509995 -1.4699054949 7.1831515943
201 1 2.545951025 -4.4097165289 1.9997135516
202 1 2.5459509995 -1.4699054949 0.2960027693
203 1 5.0919020755 -2.939811034 2.5917189525
204 1 2.5459509995 -1.4699054949 4.2954298725
205 1 5.0919020755 -2.939811034 6.5911460557
206 1 2.545951025 -4.4097165289 4.8874352734
207 2 3.5368305558 -2.939811034 8.0350069166
208 2 4.3143662901 -4.2865424306 1.1478580916
209 2 6.6469735442 -2.939811034 1.1478580916
210 2 4.3143663156 -1.5930795932 1.1478580916
211 2 1.7684152906 -2.8166369357 5.7392907334
212 2 4.1010225192 -1.4699054949 5.7392907334
213 2 0.7775357599 -1.3467314408 3.4435744125
214 2 6.0827815553 -4.4097165289 3.4435744125
215 2 3.3234868103 -3.0629851322 3.4435744125
216 2 1.7684152651 -0.1231740983 5.7392907334
217 1 -2.5459509752e-08 2.939811034 -6.5911460557
218 1 0.0 0.0 -4.8874352734
219 1 -2.5459509752e-08 2.939811034 -2.5917189525
220 1 2.5459510505 1.4699054949 -4.2954298725
221 1 0.0 0.0 -1.9997135516
222 1 2.5459510505 1.4699054949 -0.2960027693
223 1 -2.5459509752e-08 2.939811034 -9.4788677775
224 1 2.5459510505 1.4699054949 -7.1831515943
225 1 0.0 0.0 -8.8868623766
226 2 1.7684152651 3.0629850881 -3.4435744125
227 2 1.5550715197 0.0 -3.4435744125
228 2 3.3234867849 0.1231740983 -5.7392907334
229 2 0.9908795308 1.4699054949 -5.7392907334
230 2 3.3234867594 2.8166369357 -5.7392907334
231 2 -0.7775357599 1.3467314408 -3.4435744125
232 2 0.7775357344 1.5930795932 -1.1478580916
233 2 -1.5550714942 2.939811034 -1.1478580916
234 2 0.7775357599 4.2865424306 -1.1478580916
235 2 -0.7775357344 1.5930795932 -8.0350069166
236 2 1.5550714942 2.939811034 -8.0350069166
237 2 -0.7775357599 4.2865424306 -8.0350069166
238 1 -2.5459509752e-08 2.939811034 7.1831515943
239 1 0.0 0.0 8.8868623766
240 1 2.5459510505 1.4699054949 9.4788677775
241 1 0.0 0.0 1.9997135516
242 1 -2.5459509752e-08 2.939811034 0.2960027693
243 1 2.5459510505 1.4699054949 2.5917189525
244 1 -2.5459509752e-08 2.939811034 4.2954298725
245 1 2.5459510505 1.4699054949 6.5911460557
246 1 0.0 0.0 4.8874352734
247 2 3.3234867849 0.1231740983 8.0350069166
248 2 0.9908795308 1.4699054949 8.0350069166
249 2 3.3234867594 2.8166369357 8.0350069166
250 2 1.7684152651 0.1231740983 1.1478580916
251 2 4.1010225192 1.4699054949 1.1478580916
252 2 1.7684152906 2.8166369357 1.1478580916
253 2 -0.7775357344 1.5930795932 5.7392907334
254 2 1.5550714942 2.939811034 5.7392907334
255 2 -1.7684152651 3.0629850881 3.4435744125
256 2 3.5368305303 0.0 3.4435744125
257 2 0.7775357853 1.3467313967 3.4435744125
258 2 -0.7775357599 4.2865424306 5.7392907334
259 1 -2.545951025 4.4097165289 -4.8874352734
260 1 -2.5459510505 7.3495275628 -2.5917189525
261 1 2.5459511388e-08 5.8796220238 -4.2954298725
262 1 -2.545951025 4.4097165289 -1.9997135516
263 1 2.5459511388e-08 5.8796220238 -0.2960027693
264 1 2.5459511388e-08 5.8796220238 -7.1831515943
265 2 -0.7775357599 7.472701617 -3.4435744125
266 2 -0.9908795053 4.4097165289 -3.4435744125
267 2 0.7775357599 4.5328906271 -5.7392907334
268 2 -1.5550714942 5.8796220238 -5.7392907334
269 2 0.7775357344 7.2263534646 -5.7392907334
270 2 -3.3234867849 5.7564479696 -3.4435744125
271 2 -1.7684152906 6.0027961221 -1.1478580916
272 2 -4.1010225192 7.3495275628 -1.1478580916
273 2 -1.7684152651 8.6962589595 -1.1478580916
274 1 -2.545951025 4.4097165289 1.9997135516
275 1 -2.5459510505 7.3495275628 0.2960027693
276 1 2.5459511388e-08 5.8796220238 2.5917189525
277 1 -2.5459510505 7.3495275628 4.2954298725
278 1 2.5459511388e-08 5.8796220238 6.5911460557
279 1 -2.545951025 4.4097165289 4.8874352734
280 2 0.7775357599 4.5328906271 8.0350069166
281 2 -0.7775357599 4.5328906271 1.1478580916
282 2 1.5550714942 5.8796220238 1.1478580916
283 2 -0.7775357344 7.2263534646 1.1478580916
284 2 -3.3234867594 6.0027961221 5.7392907334
285 2 -0.9908795308 7.3495275628 5.7392907334
286 2 -4.3143662901 7.472701617 3.4435744125
287 2 0.9908795053 4.4097165289 3.4435744125
288 2 -1.7684152397 5.7564479255 3.4435744125
289 1 7.6378530495 -1.4699054949 -2.5917189525
290 1 7.637853075 -4.4097165289 -1.9997135516
291 2 6.8603173151 -3.0629850881 -3.4435744125
292 2 8.4153888094 -2.8166369357 -1.1478580916
293 2 6.0827815808 -1.4699054949 -1.1478580916
294 2 8.4153888349 -0.1231740983 -1.1478580916
295 1 7.637853075 -4.4097165289 1.9997135516
296 1 7.6378530495 -1.4699054949 0.2960027693
297 1 7.6378530495 -1.4699054949 4.2954298725
298 2 6.8603173406 -2.8166369357 5.7392907334
299 2 5.8694378099 -1.3467314408 3.4435744125
300 2 6.8603173151 -0.1231740983 5.7392907334
301 1 5.0919020245 2.939811034 -6.5911460557
302 1 5.09190205 0.0 -4.8874352734
303 1 5.0919020245 2.939811034 -2.5917189525
304 1 7.6378531005 1.4699054949 -4.2954298725
305 1 5.09190205 0.0 -1.9997135516
306 1 7.6378531005 1.4699054949 -0.2960027693
307 2 6.8603173151 3.0629850881 -3.4435744125
308 2 6.6469735697 0.0 -3.4435744125
309 2 6.0827815808 1.4699054949 -5.7392907334
310 2 4.3143662901 1.3467314408 -3.4435744125
311 2 5.8694377844 1.5930795932 -1.1478580916
312 2 3.5368305558 2.939811034 -1.1478580916
313 2 5.8694378099 4.2865424306 -1.1478580916
314 2 4.3143663156 1.5930795932 -8.0350069166
315 1 5.0919020245 2.939811034 7.1831515943
316 1 5.09190205 0.0 1.9997135516
317 1 5.0919020245 2.939811034 0.2960027693
318 1 7.6378531005 1.4699054949 2.5917189525
319 1 5.0919020245 2.939811034 4.2954298725
320 1 5.09190205 0.0 4.8874352734
321 2 6.8603173151 0.1231740983 1.1478580916
322 2 9.1929245692 1.4699054949 1.1478580916
323 2 6.8603173406 2.8166369357 1.1478580916
324 2 4.3143663156 1.5930795932 5.7392907334
325 2 6.6469735442 2.939811034 5.7392907334
326 2 3.3234867849 3.0629850881 3.4435744125
327 2 8.6287325803 0.0 3.4435744125
328 2 5.8694378353 1.3467313967 3.4435744125
329 2 4.3143662901 4.2865424306 5.7392907334
330 1 2.545951025 4.4097165289 -4.8874352734
331 1 2.5459509995 7.3495275628 -2.5917189525
332 1 5.0919020755 5.8796220238 -4.2954298725
333 1 2.545951025 4.4097165289 -1.9997135516
334 1 5.0919020755 5.8796220238 -0.2960027693
335 2 4.3143662901 7.472701617 -3.4435744125
336 2 4.1010225447 4.4097165289 -3.4435744125
337 2 5.8694378099 4.5328906271 -5.7392907334
338 2 3.5368305558 5.8796220238 -5.7392907334
339 2 1.7684152651 5.7564479696 -3.4435744125
340 2 3.3234867594 6.0027961221 -1.1478580916
341 2 0.9908795308 7.3495275628 -1.1478580916
342 2 3.3234867849 8.6962589595 -1.1478580916
343 1 2.545951025 4.4097165289 1.9997135516
344 1 2.5459509995 7.3495275628 0.2960027693
345 1 5.0919020755 5.8796220238 2.5917189525
346 1 2.5459509995 7.3495275628 4.2954298725
347 1 2.545951025 4.4097165289 4.8874352734
348 2 4.3143662901 4.5328906271 1.1478580916
349 2 6.6469735442 5.8796220238 1.1478580916
350 2 4.3143663156 7.2263534646 1.1478580916
351 2 1.7684152906 6.0027961221 5.7392907334
352 2 0.7775357599 7.472701617 3.4435744125
353 2 6.0827815553 4.4097165289 3.4435744125
354 2 3.3234868103 5.7564479255 3.4435744125
355 1 1.7763568394e-15 8.8194330578 -1.9997135516
356 1 1.7763568394e-15 8.8194330578 1.9997135516
357 2 1.7684152651 8.942607156 1.1478580916
358 2 8.6287326058 2.939811034 -1.1478580916
359 1 7.637853075 4.4097165289 -1.9997135516
360 1 7.637853075 4.4097165289 1.9997135516
