ITEM: TIMESTEP
0
ITEM: NUMBER OF ATOMS
360
ITEM: BOX BOUNDS pp pp pp
-30.0 30.0
-30.0 30.0
-30.0 30.0
ITEM: ATOMS type x y z ChargeDensity
1 -5.0919020755 -5.8796220238 -2.5917189525 0.2131147541
1 -2.5459509995 -7.3495275628 -4.2954298725 0.131147541
1 -2.5459509995 -7.3495275628 -0.2960027693 0.2131147541
2 -3.3234867849 -5.7564479696 -3.4435744125 0.2131147541
2 -1.7684152906 -6.0027961221 -5.7392907334 0.0491803279
2 -4.3143663156 -7.2263534646 -1.1478580916 0.131147541
2 -6.6469735442 -5.8796220238 -1.1478580916 0.0491803279
2 -4.3143662901 -4.5328906271 -1.1478580916 -0.1147540984
1 -5.0919020755 -5.8796220238 0.2960027693 0.2131147541
1 -2.5459509995 -7.3495275628 2.5917189525 0.2131147541
1 -5.0919020755 -5.8796220238 4.2954298725 0.131147541
2 -3.3234867849 -8.6962589595 1.1478580916 0.131147541
2 -0.9908795308 -7.3495275628 1.1478580916 0.131147541
2 -3.3234867594 -6.0027961221 1.1478580916 -0.1147540984
2 -3.5368305558 -5.8796220238 5.7392907334 -0.0327868852
2 -4.3143662647 -7.4727016611 3.4435744125 0.131147541
2 -5.8694378099 -4.5328906271 5.7392907334 -0.0327868852
1 -7.6378531005 -1.4699054949 -2.5917189525 0.131147541
1 -5.0919020245 -2.939811034 -4.2954298725 0.0491803279
1 -7.637853075 -4.4097165289 -1.9997135516 -0.0327868852
1 -5.0919020245 -2.939811034 -0.2960027693 -0.0327868852
1 -5.0919020245 -2.939811034 -7.1831515943 -0.1147540984
2 -5.8694378099 -1.3467314408 -3.4435744125 -0.1147540984
2 -6.0827815553 -4.4097165289 -3.4435744125 -0.0327868852
2 -4.3143662901 -4.2865424306 -5.7392907334 -0.0327868852
2 -6.6469735442 -2.939811034 -5.7392907334 -0.0327868852
2 -4.3143663156 -1.5930795932 -5.7392907334 -0.1147540984
2 -6.8603173406 -2.8166369357 -1.1478580916 0.131147541
2 -9.1929245692 -1.4699054949 -1.1478580916 0.131147541
2 -6.8603173151 -0.1231740983 -1.1478580916 -0.1967213115
1 -7.637853075 -4.4097165289 1.9997135516 -0.0327868852
1 -7.6378531005 -1.4699054949 0.2960027693 0.2131147541
1 -5.0919020245 -2.939811034 2.5917189525 0.0491803279
1 -7.6378531005 -1.4699054949 4.2954298725 0.131147541
1 -5.0919020245 -2.939811034 6.5911460557 0.2131147541
2 -4.3143663156 -1.5930795932 8.0350069166 0.131147541
2 -5.8694378099 -4.2865424306 1.1478580916 0.131147541
2 -3.5368305558 -2.939811034 1.1478580916 0.0491803279
2 -5.8694377844 -1.5930795932 1.1478580916 -0.1147540984
2 -6.0827815808 -1.4699054949 5.7392907334 0.0491803279
2 -4.1010225447 -4.4097165289 3.4435744125 -0.0327868852
2 -6.8603172897 -3.0629851322 3.4435744125 -0.0327868852
1 -7.6378530495 1.4699054949 -4.2954298725 0.0491803279
1 -7.6378530495 1.4699054949 -0.2960027693 -0.0327868852
2 -8.4153888349 3.0629850881 -3.4435744125 -0.0327868852
2 -8.6287325803 0.0 -3.4435744125 -0.0327868852
2 -6.8603173151 0.1231740983 -5.7392907334 -0.0327868852
2 -6.8603173406 2.8166369357 -5.7392907334 -0.1147540984
1 -7.6378530495 1.4699054949 2.5917189525 0.0491803279
2 -8.4153888349 0.1231740983 1.1478580916 -0.0327868852
2 -6.0827815808 1.4699054949 1.1478580916 -0.1967213115
2 -8.4153888094 2.8166369357 1.1478580916 -0.1147540984
2 -6.6469735697 0.0 3.4435744125 0.131147541
1 -2.5459511529e-08 -5.8796220238 -6.5911460557 0.2131147541
1 -2.5459511529e-08 -5.8796220238 -2.5917189525 0.0491803279
1 2.5459510505 -7.3495275628 -4.2954298725 0.131147541
1 -1.7763568394e-15 -8.8194330578 -1.9997135516 -0.0327868852
1 2.5459510505 -7.3495275628 -0.2960027693 0.131147541
2 1.7684152651 -5.7564479696 -3.4435744125 -0.0327868852
2 0.9908795308 -7.3495275628 -5.7392907334 -0.0327868852
2 3.3234867594 -6.0027961221 -5.7392907334 -0.0327868852
2 -0.7775357599 -7.472701617 -3.4435744125 -0.0327868852
2 0.7775357344 -7.2263534646 -1.1478580916 0.131147541
2 -1.5550714942 -5.8796220238 -1.1478580916 -0.1147540984
2 0.7775357599 -4.5328906271 -1.1478580916 0.0491803279
2 -0.7775357599 -4.5328906271 -8.0350069166 0.131147541
1 -2.5459511529e-08 -5.8796220238 7.1831515943 -0.1147540984
1 -1.7763568394e-15 -8.8194330578 1.9997135516 -0.0327868852
1 -2.5459511529e-08 -5.8796220238 0.2960027693 -0.0327868852
1 2.5459510505 -7.3495275628 2.5917189525 0.2131147541
1 -2.5459511529e-08 -5.8796220238 4.2954298725 0.0491803279
2 1.7684152651 -8.6962589595 1.1478580916 0.0491803279
2 4.1010225192 -7.3495275628 1.1478580916 0.0491803279
2 1.7684152906 -6.0027961221 1.1478580916 -0.1147540984
2 -0.7775357344 -7.2263534646 5.7392907334 0.0491803279
2 1.5550714942 -5.8796220238 5.7392907334 -0.0327868852
2 -1.7684152651 -5.7564479696 3.4435744125 -0.1147540984
2 0.7775357853 -7.4727016611 3.4435744125 -0.0327868852
2 -0.7775357599 -4.5328906271 5.7392907334 -0.1147540984
1 -2.5459510505 -1.4699054949 -6.5911460557 0.0491803279
1 -2.545951025 -4.4097165289 -4.8874352734 0.131147541
1 -2.5459510505 -1.4699054949 -2.5917189525 -0.1967213115
1 2.5459509612e-08 -2.939811034 -4.2954298725 -0.1147540984
1 -2.545951025 -4.4097165289 -1.9997135516 0.0491803279
1 2.5459509612e-08 -2.939811034 -0.2960027693 -0.1967213115
1 -2.5459510505 -1.4699054949 -9.4788677775 -0.1967213115
1 2.5459509612e-08 -2.939811034 -7.1831515943 0.2950819672
2 -0.7775357599 -1.3467314408 -3.4435744125 -0.0327868852
2 -0.9908795053 -4.4097165289 -3.4435744125 -0.1147540984
2 0.7775357599 -4.2865424306 -5.7392907334 -0.1147540984
2 -1.5550714942 -2.939811034 -5.7392907334 -0.1147540984
2 0.7775357344 -1.5930795932 -5.7392907334 -0.0327868852
2 -3.3234867849 -3.0629850881 -3.4435744125 -0.0327868852
2 -1.7684152906 -2.8166369357 -1.1478580916 -0.0327868852
2 -4.1010225192 -1.4699054949 -1.1478580916 -0.0327868852
2 -1.7684152651 -0.1231740983 -1.1478580916 -0.0327868852
2 -3.3234867594 -2.8166369357 -8.0350069166 0.131147541
2 -0.9908795308 -1.4699054949 -8.0350069166 0.0491803279
2 -3.3234867849 -0.1231740983 -8.0350069166 -0.0327868852
1 -2.5459510505 -1.4699054949 7.1831515943 0.2950819672
1 2.5459509612e-08 -2.939811034 9.4788677775 -0.1967213115
1 -2.545951025 -4.4097165289 1.9997135516 0.0491803279
1 -2.5459510505 -1.4699054949 0.2960027693 -0.1967213115
1 2.5459509612e-08 -2.939811034 2.5917189525 -0.1967213115
1 -2.5459510505 -1.4699054949 4.2954298725 -0.1147540984
1 2.5459509612e-08 -2.939811034 6.5911460557 0.0491803279
1 -2.545951025 -4.4097165289 4.8874352734 0.131147541
2 0.7775357599 -4.2865424306 8.0350069166 0.131147541
2 -1.5550714942 -2.939811034 8.0350069166 -0.0327868852
2 0.7775357344 -1.5930795932 8.0350069166 0.0491803279
2 -0.7775357599 -4.2865424306 1.1478580916 -0.0327868852
2 1.5550714942 -2.939811034 1.1478580916 -0.0327868852
2 -0.7775357344 -1.5930795932 1.1478580916 -0.0327868852
2 -3.3234867594 -2.8166369357 5.7392907334 -0.1147540984
2 -0.9908795308 -1.4699054949 5.7392907334 -0.0327868852
2 -4.3143662901 -1.3467314408 3.4435744125 -0.1147540984
2 0.9908795053 -4.4097165289 3.4435744125 -0.0327868852
2 -1.7684152397 -3.0629851322 3.4435744125 -0.0327868852
2 -3.3234867849 -0.1231740983 5.7392907334 -0.1147540984
1 -5.0919020755 2.939811034 -6.5911460557 0.131147541
1 -5.09190205 0.0 -4.8874352734 0.131147541
1 -5.0919020755 2.939811034 -2.5917189525 -0.1147540984
1 -2.5459509995 1.4699054949 -4.2954298725 -0.1147540984
1 -5.09190205 0.0 -1.9997135516 -0.0327868852
1 -2.5459509995 1.4699054949 -0.2960027693 -0.1967213115
1 -2.5459509995 1.4699054949 -7.1831515943 0.2950819672
2 -3.3234867849 3.0629850881 -3.4435744125 -0.1147540984
2 -3.5368305303 0.0 -3.4435744125 -0.0327868852
2 -1.7684152651 0.1231740983 -5.7392907334 -0.0327868852
2 -4.1010225192 1.4699054949 -5.7392907334 -0.1147540984
2 -1.7684152906 2.8166369357 -5.7392907334 -0.1147540984
2 -5.8694378099 1.3467314408 -3.4435744125 -0.0327868852
2 -4.3143663156 1.5930795932 -1.1478580916 -0.0327868852
2 -6.6469735442 2.939811034 -1.1478580916 -0.1147540984
2 -4.3143662901 4.2865424306 -1.1478580916 -0.1967213115
2 -3.5368305558 2.939811034 -8.0350069166 0.0491803279
1 -5.0919020755 2.939811034 7.1831515943 -0.1147540984
1 -2.5459509995 1.4699054949 9.4788677775 -0.1967213115
1 -5.09190205 0.0 1.9997135516 0.0491803279
1 -5.0919020755 2.939811034 0.2960027693 -0.0327868852
1 -2.5459509995 1.4699054949 2.5917189525 -0.1967213115
1 -5.0919020755 2.939811034 4.2954298725 0.0491803279
1 -2.5459509995 1.4699054949 6.5911460557 0.0491803279
1 -5.09190205 0.0 4.8874352734 0.131147541
2 -1.7684152651 0.1231740983 8.0350069166 0.0491803279
2 -4.1010225192 1.4699054949 8.0350069166 0.0491803279
2 -1.7684152906 2.8166369357 8.0350069166 -0.0327868852
2 -3.3234867849 0.1231740983 1.1478580916 -0.0327868852
2 -0.9908795308 1.4699054949 1.1478580916 -0.0327868852
2 -3.3234867594 2.8166369357 1.1478580916 -0.0327868852
2 -5.8694377844 1.5930795932 5.7392907334 -0.1147540984
2 -3.5368305558 2.939811034 5.7392907334 -0.1147540984
2 -6.8603173151 3.0629850881 3.4435744125 -0.0327868852
2 -1.5550715197 0.0 3.4435744125 -0.0327868852
2 -4.3143662647 1.3467313967 3.4435744125 -0.0327868852
2 -5.8694378099 4.2865424306 5.7392907334 -0.0327868852
1 -5.0919020245 5.8796220238 -4.2954298725 0.131147541
1 -7.637853075 4.4097165289 -1.9997135516 -0.0327868852
1 -5.0919020245 5.8796220238 -0.2960027693 0.0491803279
2 -6.0827815553 4.4097165289 -3.4435744125 -0.1147540984
2 -4.3143662901 4.5328906271 -5.7392907334 -0.1147540984
2 -6.8603173406 6.0027961221 -1.1478580916 -0.1147540984
1 -7.637853075 4.4097165289 1.9997135516 -0.0327868852
1 -5.0919020245 5.8796220238 2.5917189525 0.0491803279
2 -5.8694378099 4.5328906271 1.1478580916 -0.0327868852
2 -3.5368305558 5.8796220238 1.1478580916 -0.1967213115
2 -5.8694377844 7.2263534646 1.1478580916 0.0491803279
2 -4.1010225447 4.4097165289 3.4435744125 -0.1147540984
2 -6.8603172897 5.7564479255 3.4435744125 -0.0327868852
1 5.0919020245 -5.8796220238 -2.5917189525 0.131147541
2 4.3143662901 -7.472701617 -3.4435744125 0.0491803279
2 5.8694377844 -7.2263534646 -1.1478580916 0.131147541
2 3.5368305558 -5.8796220238 -1.1478580916 -0.1967213115
2 5.8694378099 -4.5328906271 -1.1478580916 0.0491803279
1 5.0919020245 -5.8796220238 0.2960027693 0.2131147541
1 5.0919020245 -5.8796220238 4.2954298725 0.131147541
2 6.8603173406 -6.0027961221 1.1478580916 -0.0327868852
2 3.3234867849 -5.7564479696 3.4435744125 0.131147541
2 4.3143662901 -4.5328906271 5.7392907334 -0.0327868852
1 2.5459509995 -1.4699054949 -6.5911460557 0.0491803279
1 2.545951025 -4.4097165289 -4.8874352734 0.131147541
1 2.5459509995 -1.4699054949 -2.5917189525 -0.1967213115
1 5.0919020755 -2.939811034 -4.2954298725 0.0491803279
1 2.545951025 -4.4097165289 -1.9997135516 0.0491803279
1 5.0919020755 -2.939811034 -0.2960027693 -0.0327868852
1 2.5459509995 -1.4699054949 -9.4788677775 -0.1967213115
1 5.0919020755 -2.939811034 -7.1831515943 -0.1147540984
2 4.3143662901 -1.3467314408 -3.4435744125 -0.0327868852
2 4.1010225447 -4.4097165289 -3.4435744125 -0.1147540984
2 5.8694378099 -4.2865424306 -5.7392907334 -0.0327868852
2 3.5368305558 -2.939811034 -5.7392907334 -0.1147540984
2 5.8694377844 -1.5930795932 -5.7392907334 -0.0327868852
2 1.7684152651 -3.0629850881 -3.4435744125 -0.0327868852
2 3.3234867594 -2.8166369357 -1.1478580916 -0.0327868852
2 0.9908795308 -1.4699054949 -1.1478580916 -0.0327868852
2 3.3234867849 -0.1231740983 -1.1478580916 -0.0327868852
2 1.7684152906 -2.8166369357 -8.0350069166 -0.0327868852
2 4.1010225192 -1.4699054949 -8.0350069166 0.131147541
2 1.7684152651 -0.1231740983 -8.0350069166 0.0491803279
1 2.5459509995 -1.4699054949 7.1831515943 0.2950819672
1 2.545951025 -4.4097165289 1.9997135516 0.0491803279
1 2.5459509995 -1.4699054949 0.2960027693 -0.1967213115
1 5.0919020755 -2.939811034 2.5917189525 -0.0327868852
1 2.5459509995 -1.4699054949 4.2954298725 -0.1147540984
1 5.0919020755 -2.939811034 6.5911460557 0.131147541
1 2.545951025 -4.4097165289 4.8874352734 0.131147541
2 3.5368305558 -2.939811034 8.0350069166 0.131147541
2 4.3143662901 -4.2865424306 1.1478580916 -0.1147540984
2 6.6469735442 -2.939811034 1.1478580916 0.0491803279
2 4.3143663156 -1.5930795932 1.1478580916 -0.0327868852
2 1.7684152906 -2.8166369357 5.7392907334 -0.1147540984
2 4.1010225192 -1.4699054949 5.7392907334 -0.1147540984
2 0.7775357599 -1.3467314408 3.4435744125 -0.0327868852
2 6.0827815553 -4.4097165289 3.4435744125 -0.1147540984
2 3.3234868103 -3.0629851322 3.4435744125 -0.1147540984
2 1.7684152651 -0.1231740983 5.7392907334 -0.0327868852
1 -2.5459509752e-08 2.939811034 -6.5911460557 0.0491803279
1 0.0 0.0 -4.8874352734 -0.1967213115
1 -2.5459509752e-08 2.939811034 -2.5917189525 -0.1967213115
1 2.5459510505 1.4699054949 -4.2954298725 -0.1147540984
1 0.0 0.0 -1.9997135516 -0.1967213115
1 2.5459510505 1.4699054949 -0.2960027693 -0.1967213115
1 -2.5459509752e-08 2.939811034 -9.4788677775 -0.1967213115
1 2.5459510505 1.4699054949 -7.1831515943 0.2950819672
1 0.0 0.0 -8.8868623766 0.2950819672
2 1.7684152651 3.0629850881 -3.4435744125 -0.0327868852
2 1.5550715197 0.0 -3.4435744125 -0.0327868852
2 3.3234867849 0.1231740983 -5.7392907334 -0.1147540984
2 0.9908795308 1.4699054949 -5.7392907334 -0.0327868852
2 3.3234867594 2.8166369357 -5.7392907334 -0.1147540984
2 -0.7775357599 1.3467314408 -3.4435744125 -0.0327868852
2 0.7775357344 1.5930795932 -1.1478580916 -0.0327868852
2 -1.5550714942 2.939811034 -1.1478580916 -0.0327868852
2 0.7775357599 4.2865424306 -1.1478580916 -0.0327868852
2 -0.7775357344 1.5930795932 -8.0350069166 0.0491803279
2 1.5550714942 2.939811034 -8.0350069166 -0.0327868852
2 -0.7775357599 4.2865424306 -8.0350069166 0.131147541
1 -2.5459509752e-08 2.939811034 7.1831515943 0.2950819672
1 0.0 0.0 8.8868623766 0.2950819672
1 2.5459510505 1.4699054949 9.4788677775 -0.1967213115
1 0.0 0.0 1.9997135516 -0.1967213115
1 -2.5459509752e-08 2.939811034 0.2960027693 -0.1967213115
1 2.5459510505 1.4699054949 2.5917189525 -0.1967213115
1 -2.5459509752e-08 2.939811034 4.2954298725 -0.1147540984
1 2.5459510505 1.4699054949 6.5911460557 0.0491803279
1 0.0 0.0 4.8874352734 -0.1967213115
2 3.3234867849 0.1231740983 8.0350069166 -0.0327868852
2 0.9908795308 1.4699054949 8.0350069166 0.0491803279
2 3.3234867594 2.8166369357 8.0350069166 0.131147541
2 1.7684152651 0.1231740983 1.1478580916 -0.0327868852
2 4.1010225192 1.4699054949 1.1478580916 -0.0327868852
2 1.7684152906 2.8166369357 1.1478580916 -0.0327868852
2 -0.7775357344 1.5930795932 5.7392907334 -0.0327868852
2 1.5550714942 2.939811034 5.7392907334 -0.1147540984
2 -1.7684152651 3.0629850881 3.4435744125 -0.0327868852
2 3.5368305303 0.0 3.4435744125 -0.0327868852
2 0.7775357853 1.3467313967 3.4435744125 -0.0327868852
2 -0.7775357599 4.2865424306 5.7392907334 -0.1147540984
1 -2.545951025 4.4097165289 -4.8874352734 0.131147541
1 -2.5459510505 7.3495275628 -2.5917189525 0.131147541
1 2.5459511388e-08 5.8796220238 -4.2954298725 0.0491803279
1 -2.545951025 4.4097165289 -1.9997135516 0.0491803279
1 2.5459511388e-08 5.8796220238 -0.2960027693 -0.0327868852
1 2.5459511388e-08 5.8796220238 -7.1831515943 -0.1147540984
2 -0.7775357599 7.472701617 -3.4435744125 -0.0327868852
2 -0.9908795053 4.4097165289 -3.4435744125 -0.0327868852
2 0.7775357599 4.5328906271 -5.7392907334 -0.1147540984
2 -1.5550714942 5.8796220238 -5.7392907334 -0.0327868852
2 0.7775357344 7.2263534646 -5.7392907334 -0.0327868852
2 -3.3234867849 5.7564479696 -3.4435744125 0.0491803279
2 -1.7684152906 6.0027961221 -1.1478580916 -0.1147540984
2 -4.1010225192 7.3495275628 -1.1478580916 -0.0327868852
2 -1.7684152651 8.6962589595 -1.1478580916 -0.0327868852
1 -2.545951025 4.4097165289 1.9997135516 -0.0327868852
1 -2.5459510505 7.3495275628 0.2960027693 -0.0327868852
1 2.5459511388e-08 5.8796220238 2.5917189525 -0.0327868852
1 -2.5459510505 7.3495275628 4.2954298725 0.0491803279
1 2.5459511388e-08 5.8796220238 6.5911460557 0.131147541
1 -2.545951025 4.4097165289 4.8874352734 0.131147541
2 0.7775357599 4.5328906271 8.0350069166 0.131147541
2 -0.7775357599 4.5328906271 1.1478580916 -0.0327868852
2 1.5550714942 5.8796220238 1.1478580916 -0.1147540984
2 -0.7775357344 7.2263534646 1.1478580916 0.0491803279
2 -3.3234867594 6.0027961221 5.7392907334 -0.0327868852
2 -0.9908795308 7.3495275628 5.7392907334 -0.1147540984
2 -4.3143662901 7.472701617 3.4435744125 -0.0327868852
2 0.9908795053 4.4097165289 3.4435744125 -0.1147540984
2 -1.7684152397 5.7564479255 3.4435744125 -0.0327868852
1 7.6378530495 -1.4699054949 -2.5917189525 0.131147541
1 7.637853075 -4.4097165289 -1.9997135516 -0.0327868852
2 6.8603173151 -3.0629850881 -3.4435744125 -0.0327868852
2 8.4153888094 -2.8166369357 -1.1478580916 -0.0327868852
2 6.0827815808 -1.4699054949 -1.1478580916 -0.1147540984
2 8.4153888349 -0.1231740983 -1.1478580916 -0.0327868852
1 7.637853075 -4.4097165289 1.9997135516 -0.0327868852
1 7.6378530495 -1.4699054949 0.2960027693 0.0491803279
1 7.6378530495 -1.4699054949 4.2954298725 0.131147541
2 6.8603173406 -2.8166369357 5.7392907334 -0.0327868852
2 5.8694378099 -1.3467314408 3.4435744125 -0.0327868852
2 6.8603173151 -0.1231740983 5.7392907334 -0.0327868852
1 5.0919020245 2.939811034 -6.5911460557 0.131147541
1 5.09190205 0.0 -4.8874352734 0.131147541
1 5.0919020245 2.939811034 -2.5917189525 -0.0327868852
1 7.6378531005 1.4699054949 -4.2954298725 0.131147541
1 5.09190205 0.0 -1.9997135516 0.0491803279
1 7.6378531005 1.4699054949 -0.2960027693 0.2131147541
2 6.8603173151 3.0629850881 -3.4435744125 -0.1147540984
2 6.6469735697 0.0 -3.4435744125 0.131147541
2 6.0827815808 1.4699054949 -5.7392907334 -0.0327868852
2 4.3143662901 1.3467314408 -3.4435744125 -0.1147540984
2 5.8694377844 1.5930795932 -1.1478580916 -0.1147540984
2 3.5368305558 2.939811034 -1.1478580916 -0.0327868852
2 5.8694378099 4.2865424306 -1.1478580916 0.0491803279
2 4.3143663156 1.5930795932 -8.0350069166 0.131147541
1 5.0919020245 2.939811034 7.1831515943 -0.1147540984
1 5.09190205 0.0 1.9997135516 0.0491803279
1 5.0919020245 2.939811034 0.2960027693 -0.0327868852
1 7.6378531005 1.4699054949 2.5917189525 0.131147541
1 5.0919020245 2.939811034 4.2954298725 0.0491803279
1 5.09190205 0.0 4.8874352734 0.131147541
2 6.8603173151 0.1231740983 1.1478580916 -0.1967213115
2 9.1929245692 1.4699054949 1.1478580916 0.131147541
2 6.8603173406 2.8166369357 1.1478580916 0.0491803279
2 4.3143663156 1.5930795932 5.7392907334 -0.1147540984
2 6.6469735442 2.939811034 5.7392907334 -0.0327868852
2 3.3234867849 3.0629850881 3.4435744125 -0.0327868852
2 8.6287325803 0.0 3.4435744125 -0.0327868852
2 5.8694378353 1.3467313967 3.4435744125 -0.1147540984
2 4.3143662901 4.2865424306 5.7392907334 -0.0327868852
1 2.545951025 4.4097165289 -4.8874352734 0.131147541
1 2.5459509995 7.3495275628 -2.5917189525 0.131147541
1 5.0919020755 5.8796220238 -4.2954298725 0.131147541
1 2.545951025 4.4097165289 -1.9997135516 0.0491803279
1 5.0919020755 5.8796220238 -0.2960027693 0.0491803279
2 4.3143662901 7.472701617 -3.4435744125 -0.0327868852
2 4.1010225447 4.4097165289 -3.4435744125 -0.0327868852
2 5.8694378099 4.5328906271 -5.7392907334 -0.0327868852
2 3.5368305558 5.8796220238 -5.7392907334 -0.0327868852
2 1.7684152651 5.7564479696 -3.4435744125 -0.1147540984
2 3.3234867594 6.0027961221 -1.1478580916 -0.1967213115
2 0.9908795308 7.3495275628 -1.1478580916 0.0491803279
2 3.3234867849 8.6962589595 -1.1478580916 0.131147541
1 2.545951025 4.4097165289 1.9997135516 0.0491803279
1 2.5459509995 7.3495275628 0.2960027693 0.2131147541
1 5.0919020755 5.8796220238 2.5917189525 0.131147541
1 2.5459509995 7.3495275628 4.2954298725 0.131147541
1 2.545951025 4.4097165289 4.8874352734 0.131147541
2 4.3143662901 4.5328906271 1.1478580916 -0.1147540984
2 6.6469735442 5.8796220238 1.1478580916 -0.0327868852
2 4.3143663156 7.2263534646 1.1478580916 -0.0327868852
2 1.7684152906 6.0027961221 5.7392907334 -0.0327868852
2 0.7775357599 7.472701617 3.4435744125 -0.1147540984
2 6.0827815553 4.4097165289 3.4435744125 -0.0327868852
2 3.3234868103 5.7564479255 3.4435744125 0.131147541
1 1.7763568394e-15 8.8194330578 -1.9997135516 -0.0327868852
1 1.7763568394e-15 8.8194330578 1.9997135516 -0.0327868852
2 1.7684152651 8.942607156 1.1478580916 -0.0327868852
2 8.6287326058 2.939811034 -1.1478580916 -0.0327868852
1 7.637853075 4.4097165289 -1.9997135516 -0.0327868852
1 7.637853075 4.4097165289 1.9997135516 -0.0327868852
