# LAMMPS data file written by Ovito 3.10.6

360 atoms
2 atom types

-30.0 52.0 xlo xhi
-30.0 30.0 ylo yhi
-30.0 30.0 zlo zhi

Masses

1 55.845  # Fe3+
2 15.9994  # O2-

Atoms  # charge

1 1 0.0 16.2944239728 -3.200880073 -4.9411737446
2 1 0.0 17.6474268214 -1.5556204983 -7.5883655202
3 1 0.0 19.6471403729 -4.5551908256 -5.8565627843
4 2 0.0 17.3999888089 -1.7346551679 -5.6454699416
5 2 0.0 17.5988620672 0.537323706 -7.2416559002
6 2 0.0 17.6897201237 -4.6204585789 -5.6766512318
7 2 0.0 15.6696230066 -4.957141417 -3.9271957848
8 2 0.0 17.6897201457 -3.2737271491 -3.3440439968
9 1 0.0 17.7382848337 -5.3666713644 -3.6907535595
10 1 0.0 21.0910012339 -6.720982117 -4.6061425992
11 1 0.0 19.7379983853 -8.3662416917 -1.9589508235
12 2 0.0 19.695705061 -6.6481350409 -6.203272347
13 2 0.0 21.7158022001 -4.964720773 -5.6201205589
14 2 0.0 19.695705083 -5.3014036111 -3.870665112
15 2 0.0 21.8066602565 -8.775771617 -1.7225086109
16 2 0.0 19.9854364198 -8.1872070332 -3.9018464467
17 2 0.0 19.7865631174 -9.1124544883 0.0269468042
18 1 0.0 14.0895657084 -2.0984509408 -0.4857594508
19 1 0.0 15.4425685569 -0.453191366 -3.1329512265
20 1 0.0 14.3855684309 -4.0123604974 -2.7753646367
21 1 0.0 17.4422821085 -3.4527616934 -1.4011484905
22 1 0.0 13.998707696 1.7125999254 -4.3833714116
23 2 0.0 15.1951305445 -0.6322260356 -1.1900556478
24 2 0.0 15.0103694412 -2.2560991313 -3.7893426092
25 2 0.0 15.3940038248 0.2930214305 -5.1188488542
26 2 0.0 13.3739066857 -0.0436614407 -3.3693934391
27 2 0.0 15.3940038027 1.6397528382 -2.7862416065
28 2 0.0 15.4848618592 -3.5180294467 -1.221236938
29 2 0.0 13.4647647422 -3.8547122848 0.5282185089
30 2 0.0 15.4848618813 -2.1712980169 1.111370297
31 1 0.0 16.3852819825 -7.0119308248 -1.0435619008
32 1 0.0 15.5334265693 -4.2642422322 0.7646607343
33 1 0.0 18.8861429694 -5.6185529848 -0.1507283054
34 1 0.0 17.5331401209 -7.2638125595 2.4964634702
35 1 0.0 20.885856521 -8.6181233121 1.5810744305
36 2 0.0 22.2811526277 -8.6909703993 3.1782042356
37 2 0.0 17.4908467965 -5.5457059086 -1.7478580532
38 2 0.0 19.5109439356 -3.8622916408 -1.1647062652
39 2 0.0 17.4908468186 -4.1989744789 0.5847491818
40 2 0.0 19.6018019921 -7.6733424848 2.7329056828
41 2 0.0 20.170197501 -6.5633339264 -1.3025594408
42 2 0.0 17.7805781554 -7.0847779009 0.553567847
43 1 0.0 13.2377102925 0.6492377662 1.3224630673
44 1 0.0 15.2374238441 -2.3503325612 3.0542658032
45 2 0.0 12.99027228 0.4702030966 3.2653586459
46 2 0.0 12.8055111767 -1.1536699991 0.6660716846
47 2 0.0 13.1891455604 1.3954505627 -0.6634345604
48 2 0.0 13.1891455383 2.7421819704 1.6691726873
49 1 0.0 16.681284705 -4.5161238526 4.3046859883
50 2 0.0 15.2859885321 -4.4432767764 2.7075562405
51 2 0.0 17.3060856712 -2.7598625085 3.2907080286
52 2 0.0 15.2859885541 -3.0965453467 5.0401634755
53 2 0.0 17.9653392366 -5.4609047942 3.1528548529
54 1 0.0 18.7044269501 2.0035485188 -7.945951993
55 1 0.0 20.7041405017 -0.9960218085 -6.2141492571
56 1 0.0 22.0571433503 0.6492377662 -8.8613410327
57 1 0.0 21.0001432242 -2.9099313652 -8.503754443
58 1 0.0 24.0568569018 -2.3503325612 -7.1295382968
59 2 0.0 21.8097053378 0.4702030966 -6.9184454541
60 2 0.0 19.988481479 1.0587676915 -9.0977832453
61 2 0.0 22.0085785961 2.7421819704 -8.5146314127
62 2 0.0 19.6048470734 -1.4903528593 -7.7682769558
63 2 0.0 22.0994366525 -2.4156003144 -6.9496267443
64 2 0.0 20.0793395355 -2.7522831526 -5.2001712973
65 2 0.0 22.0994366746 -1.0688688847 -4.6170195093
66 2 0.0 17.3091308213 3.4231270137 -7.2104745504
67 1 0.0 25.5915757751 -8.3271747187 -1.9815061509
68 1 0.0 22.9998567758 -5.9095016926 -6.771951707
69 1 0.0 22.1480013626 -3.1618130999 -4.963729072
70 1 0.0 25.5007177628 -4.5161238526 -5.8791181117
71 1 0.0 24.1477149142 -6.1613834273 -3.231926336
72 2 0.0 24.1054215899 -4.4432767764 -7.4762478595
73 2 0.0 26.1255187289 -2.7598625085 -6.8930960714
74 2 0.0 24.1054216119 -3.0965453467 -5.1436406245
75 2 0.0 24.1962796684 -8.2543276315 -3.578635956
76 2 0.0 26.2163767854 -6.5709133526 -2.9954841234
77 2 0.0 22.1902946622 -6.2266510662 -3.0520149005
78 2 0.0 24.3951529487 -5.9823487687 -5.1748219592
79 2 0.0 24.1962796463 -6.9075962238 -1.2460287083
80 1 0.0 16.4995686857 3.105977651 -3.4905376993
81 1 0.0 17.3514240988 0.3582890584 -5.2987603343
82 1 0.0 18.4992822372 0.1064073237 -1.7587349633
83 1 0.0 19.8522850858 1.7516668984 -4.405926739
84 1 0.0 18.7952849598 -1.807502233 -4.0483401492
85 1 0.0 21.8519986374 -1.2479034289 -2.674124003
86 1 0.0 15.0557078247 5.2717689424 -4.7409578844
87 1 0.0 18.4084242249 3.9174581898 -5.6563469241
88 2 0.0 19.6048470734 1.5726322288 -2.4630311603
89 2 0.0 19.4200859701 -0.0512408669 -5.0623181217
90 2 0.0 19.8037203537 2.4978796949 -6.3918243667
91 2 0.0 17.7836232146 2.1611968237 -4.6423689516
92 2 0.0 19.8037203316 3.8446111026 -4.059217119
93 2 0.0 17.3999888089 -0.3879237271 -3.312862662
94 2 0.0 19.8945783881 -1.3131711822 -2.4942124505
95 2 0.0 17.8744812711 -1.6498540204 -0.7447570036
96 2 0.0 19.8945784101 0.0335602475 -0.1616052155
97 2 0.0 15.1042725789 3.1788247382 -5.0876675044
98 2 0.0 17.124369696 4.8622390171 -4.5045156718
99 2 0.0 15.1042725569 4.5255561459 -2.7550602566
100 1 0.0 23.3867175107 -7.2247455865 2.4739081428
101 1 0.0 26.7394339108 -8.5790563391 1.5585191031
102 1 0.0 20.7949985113 -4.8070725603 -2.3165374133
103 1 0.0 19.9431430982 -2.0593839677 -0.5083147782
104 1 0.0 23.2958594983 -3.4136947203 -1.4237038179
105 1 0.0 21.9428566497 -5.0589542951 1.2234879577
106 1 0.0 25.2955730499 -6.4132650477 0.308098918
107 1 0.0 22.2388593723 -6.9728638517 -1.0661172282
108 2 0.0 26.6908691787 -7.8328435426 -0.4273785246
109 2 0.0 24.6707720396 -8.1695264138 1.3220768905
110 2 0.0 26.6908691566 -6.4861121349 1.9052287231
111 2 0.0 21.9005633254 -3.3408476442 -3.0208335657
112 2 0.0 23.9206604645 -1.6574333763 -2.4376817777
113 2 0.0 21.9005633475 -1.9941162145 -0.6882263307
114 2 0.0 21.9914214039 -7.1518984993 0.8767783377
115 2 0.0 24.011518521 -5.4684842204 1.4599301703
116 2 0.0 19.9854363977 -5.124221934 1.4033993933
117 2 0.0 24.5799140299 -4.358475662 -2.5755349533
118 2 0.0 22.1902946842 -4.8799196365 -0.7194076655
119 2 0.0 21.9914213819 -5.8051670916 3.2093855854
120 1 0.0 14.2947104212 4.2084067832 0.9648765945
121 1 0.0 15.1465658344 1.4607181906 -0.8433460406
122 1 0.0 16.2944239728 1.2088364559 2.6966793304
123 1 0.0 17.6474268214 2.8540960306 0.0494875548
124 1 0.0 16.5904266953 -0.7050731008 0.4070741445
125 1 0.0 19.6471403729 -0.1454742967 1.7812902907
126 1 0.0 16.2035659604 5.019887322 -1.2009326303
127 2 0.0 17.3999888089 2.675061361 1.9923831334
128 2 0.0 17.2152277056 1.0511882653 -0.6069038279
129 2 0.0 17.5988620892 3.6003088272 -1.9364100729
130 2 0.0 15.5787649501 3.2636259559 -0.1869546578
131 2 0.0 17.5988620672 4.9470402349 0.3961971748
132 2 0.0 15.1951305445 0.7145054051 1.1425516317
133 2 0.0 17.6897201237 -0.21074205 1.9612018432
134 2 0.0 15.6696230066 -0.5474248881 3.7106572902
135 2 0.0 17.6897201457 1.1359893797 4.2938090782
136 2 0.0 14.9195114315 5.9646681493 -0.049101378
137 1 0.0 21.1818592462 -6.1223164543 6.9293224366
138 1 0.0 24.5345756464 -7.4766272069 6.0139333969
139 1 0.0 18.5901402469 -3.7046434281 2.1388768805
140 1 0.0 17.7382848337 -0.9569548355 3.9470995155
141 1 0.0 21.0910012339 -2.3112655881 3.0317104758
142 1 0.0 19.7379983853 -3.9565251628 5.6789022515
143 1 0.0 23.0907147854 -5.3108359155 4.7635132118
144 1 0.0 20.0340011078 -5.8704347195 3.3892970656
145 2 0.0 24.4860109142 -6.7304144103 4.0280357691
146 2 0.0 22.4659137751 -7.0670972816 5.7774911843
147 2 0.0 24.4860108922 -5.3836830026 6.3606430169
148 2 0.0 19.695705061 -2.238418512 1.434580728
149 2 0.0 21.7158022001 -0.5550042441 2.0177325161
150 2 0.0 19.695705083 -0.8916870822 3.767187963
151 2 0.0 19.7865631395 -6.0494693671 5.3321926315
152 2 0.0 21.8066602565 -4.3660550882 5.9153444641
153 2 0.0 17.7805781333 -4.0217928018 5.858813687
154 2 0.0 22.3750557655 -3.2560465298 1.8798793404
155 2 0.0 19.9854364198 -3.7774905043 3.7360066283
156 2 0.0 19.7865631174 -4.7027379594 7.6647998792
157 1 0.0 15.4425685569 3.9565251628 4.5049018485
158 1 0.0 14.3855684309 0.3973560315 4.8624884383
159 1 0.0 17.4422821085 0.9569548355 6.2367045845
160 2 0.0 15.0103694412 2.1536173975 3.8485104658
161 2 0.0 15.3940038248 4.7027379594 2.5190042208
162 2 0.0 15.4848618592 0.8916870822 6.416616137
163 1 0.0 16.3852819825 -2.6022142959 6.5942911742
164 1 0.0 18.8861429694 -1.2088364559 7.4871247696
165 2 0.0 17.4908467965 -1.1359893797 5.8899950218
166 2 0.0 19.5109439356 0.5474248881 6.4731468098
167 2 0.0 17.4908468186 0.21074205 8.2226022568
168 2 0.0 20.170197501 -2.1536173975 6.3352936342
169 2 0.0 17.7805781554 -2.675061372 8.191420922
170 1 0.0 25.1138570306 1.2088364559 -7.4871247696
171 2 0.0 24.0145636023 0.7145054051 -9.0412524683
172 2 0.0 26.5091531814 -0.21074205 -8.2226022568
173 2 0.0 24.4890560644 -0.5474248881 -6.4731468098
174 2 0.0 26.5091532035 1.1359893797 -5.8899950218
175 1 0.0 26.5577178915 -0.9569548355 -6.2367045845
176 1 0.0 28.5574314431 -3.9565251628 -4.5049018485
177 2 0.0 28.5151381408 -0.8916870822 -6.416616137
178 2 0.0 26.6000111911 -4.0217928018 -4.324990413
179 2 0.0 28.6059961752 -4.7027379594 -2.5190042208
180 1 0.0 20.9092852146 5.3108359155 -4.7635132118
181 1 0.0 21.7611406277 2.5631473229 -6.5717358468
182 1 0.0 22.9089987661 2.3112655881 -3.0317104758
183 1 0.0 24.2620016147 3.9565251628 -5.6789022515
184 1 0.0 23.2050014887 0.3973560315 -5.3213156617
185 1 0.0 26.2617151663 0.9569548355 -3.9470995155
186 1 0.0 19.4654243536 7.4766272069 -6.0139333969
187 1 0.0 22.8181407538 6.1223164543 -6.9293224366
188 2 0.0 24.0145636023 3.7774904932 -3.7360066728
189 2 0.0 23.829802499 2.1536173975 -6.3352936342
190 2 0.0 24.2134368826 4.7027379594 -7.6647998792
191 2 0.0 22.1933397435 4.3660550882 -5.9153444641
192 2 0.0 24.2134368605 6.0494693671 -5.3321926315
193 2 0.0 21.8097053378 1.8169345373 -4.5858381745
194 2 0.0 24.304294917 0.8916870822 -3.767187963
195 2 0.0 22.2841977999 0.5550042441 -2.0177325161
196 2 0.0 24.304294939 2.238418512 -1.434580728
197 2 0.0 19.5139891078 5.3836830026 -6.3606430169
198 2 0.0 21.5340862249 7.0670972816 -5.7774911843
199 2 0.0 19.5139890858 6.7304144103 -4.0280357691
200 1 0.0 27.7964340396 -5.019887322 1.2009326303
201 1 0.0 25.2047150402 -2.6022142959 -3.5895129258
202 1 0.0 24.3528596271 0.1454742967 -1.7812902907
203 1 0.0 27.7055760272 -1.2088364559 -2.6966793304
204 1 0.0 26.3525731786 -2.8540960306 -0.0494875548
205 1 0.0 29.7052895788 -4.2084067832 -0.9648765945
206 1 0.0 26.6485759012 -4.7680055873 -2.3390927407
207 2 0.0 29.0804885685 -5.9646681493 0.049101378
208 2 0.0 26.3102798543 -1.1359893797 -4.2938090782
209 2 0.0 28.3303769934 0.5474248881 -3.7106572902
210 2 0.0 26.3102798763 0.21074205 -1.9612018432
211 2 0.0 26.4011379328 -4.9470402349 -0.3961971748
212 2 0.0 28.4212350499 -3.2636259559 0.1869546578
213 2 0.0 24.3951529266 -2.9193636696 0.1304238808
214 2 0.0 28.9896305588 -2.1536173975 -3.8485104658
215 2 0.0 26.6000112131 -2.675061372 -1.992383178
216 2 0.0 26.4011379108 -3.6003088272 1.9364100729
217 1 0.0 18.7044269501 6.4132650477 -0.308098918
218 1 0.0 19.5562823633 3.6655764551 -2.1163215531
219 1 0.0 20.7041405017 3.4136947203 1.4237038179
220 1 0.0 22.0571433503 5.0589542951 -1.2234879577
221 1 0.0 21.0001432242 1.4997851637 -0.865901368
222 1 0.0 24.0568569018 2.0593839677 0.5083147782
223 1 0.0 17.2605660892 8.5790563391 -1.5585191031
224 1 0.0 20.6132824893 7.2247455865 -2.4739081428
225 1 0.0 17.5565688117 6.6651467824 -3.848124289
226 2 0.0 21.8097053378 4.8799196255 0.7194076209
227 2 0.0 21.6249442345 3.2560465298 -1.8798793404
228 2 0.0 22.0085786181 5.8051670916 -3.2093855854
229 2 0.0 19.988481479 5.4684842204 -1.4599301703
230 2 0.0 22.0085785961 7.1518984993 -0.8767783377
231 2 0.0 19.6048470734 2.9193636696 -0.1304238808
232 2 0.0 22.0994366525 1.9941162145 0.6882263307
233 2 0.0 20.0793395355 1.6574333763 2.4376817777
234 2 0.0 22.0994366746 3.3408476442 3.0208335657
235 2 0.0 17.3091308434 6.4861121349 -1.9052287231
236 2 0.0 19.3292279604 8.1695264138 -1.3220768905
237 2 0.0 17.3091308213 7.8328435426 0.4273785246
238 1 0.0 25.5915757751 -3.9174581898 5.6563469241
239 1 0.0 26.4434311883 -6.6651467824 3.848124289
240 1 0.0 28.9442921753 -5.2717689424 4.7409578844
241 1 0.0 22.9998567758 -1.4997851637 0.865901368
242 1 0.0 22.1480013626 1.2479034289 2.674124003
243 1 0.0 25.5007177628 -0.1064073237 1.7587349633
244 1 0.0 24.1477149142 -1.7516668984 4.405926739
245 1 0.0 27.5004313143 -3.105977651 3.4905376993
246 1 0.0 24.4437176367 -3.6655764551 2.1163215531
247 2 0.0 28.8957274431 -4.5255561459 2.7550602566
248 2 0.0 26.875630304 -4.8622390171 4.5045156718
249 2 0.0 28.8957274211 -3.1788247382 5.0876675044
250 2 0.0 24.1054215899 -0.0335602475 0.1616052155
251 2 0.0 26.1255187289 1.6498540204 0.7447570036
252 2 0.0 24.1054216119 1.3131711822 2.4942124505
253 2 0.0 24.1962796684 -3.8446111026 4.059217119
254 2 0.0 26.2163767854 -2.1611968237 4.6423689516
255 2 0.0 22.1902946622 -1.8169345373 4.5858381745
256 2 0.0 26.7847722944 -1.0511882653 0.6069038279
257 2 0.0 24.3951529487 -1.5726322398 2.4630311158
258 2 0.0 24.1962796463 -2.4978796949 6.3918243667
259 1 0.0 17.3514240988 4.7680055873 2.3390927407
260 1 0.0 18.4992822372 4.5161238526 5.8791181117
261 1 0.0 19.8522850858 6.1613834273 3.231926336
262 1 0.0 18.7952849598 2.6022142959 3.5895129258
263 1 0.0 21.8519986374 3.1618130999 4.963729072
264 1 0.0 18.4084242249 8.3271747187 1.9815061509
265 2 0.0 19.6048470734 5.9823487577 5.1748219147
266 2 0.0 19.4200859701 4.358475662 2.5755349533
267 2 0.0 19.8037203537 6.9075962238 1.2460287083
268 2 0.0 17.7836232146 6.5709133526 2.9954841234
269 2 0.0 19.8037203316 8.2543276315 3.578635956
270 2 0.0 17.3999888089 4.0217928018 4.324990413
271 2 0.0 19.8945783881 3.0965453467 5.1436406245
272 2 0.0 17.8744812711 2.7598625085 6.8930960714
273 2 0.0 19.8945784101 4.4432767764 7.4762478595
274 1 0.0 20.7949985113 -0.3973560315 5.3213156617
275 1 0.0 19.9431430982 2.3503325612 7.1295382968
276 1 0.0 23.2958594983 0.9960218085 6.2141492571
277 1 0.0 21.9428566497 -0.6492377662 8.8613410327
278 1 0.0 25.2955730499 -2.0035485188 7.945951993
279 1 0.0 22.2388593723 -2.5631473229 6.5717358468
280 2 0.0 26.6908691787 -3.4231270137 7.2104745504
281 2 0.0 21.9005633254 1.0688688847 4.6170195093
282 2 0.0 23.9206604645 2.7522831526 5.2001712973
283 2 0.0 21.9005633475 2.4156003144 6.9496267443
284 2 0.0 21.9914214039 -2.7421819704 8.5146314127
285 2 0.0 24.011518521 -1.0587676915 9.0977832453
286 2 0.0 19.9854363977 -0.7145054051 9.0412524683
287 2 0.0 24.5799140299 0.0512408669 5.0623181217
288 2 0.0 22.1902946842 -0.4702031076 6.9184454095
289 1 0.0 27.318715295 4.5161238526 -4.3046859883
290 1 0.0 27.6147180175 2.6022142959 -6.5942911742
291 2 0.0 26.2194218667 4.0217928018 -5.858813687
292 2 0.0 28.7140114459 3.0965453467 -5.0401634755
293 2 0.0 26.6939143288 2.7598625085 -3.2907080286
294 2 0.0 28.7140114679 4.4432767764 -2.7075562405
295 1 0.0 29.6144315691 -0.3973560315 -4.8624884383
296 1 0.0 28.7625761559 2.3503325612 -3.0542658032
297 1 0.0 30.7622897075 -0.6492377662 -1.3224630673
298 2 0.0 30.8108544617 -2.7421819704 -1.6691726873
299 2 0.0 28.8048694555 -0.7145054051 -1.1425516317
300 2 0.0 30.8108544396 -1.3954505627 0.6634345604
301 1 0.0 23.114143479 8.6181233121 -1.5810744305
302 1 0.0 23.9659988922 5.8704347195 -3.3892970656
303 1 0.0 25.1138570306 5.6185529848 0.1507283054
304 1 0.0 26.4668598791 7.2638125595 -2.4964634702
305 1 0.0 25.4098597531 3.7046434281 -2.1388768805
306 1 0.0 28.4665734307 4.2642422322 -0.7646607343
307 2 0.0 26.2194218667 7.0847778899 -0.5535678916
308 2 0.0 26.0346607634 5.4609047942 -3.1528548529
309 2 0.0 24.3981980079 7.6733424848 -2.7329056828
310 2 0.0 24.0145636023 5.124221934 -1.4033993933
311 2 0.0 26.5091531814 4.1989744789 -0.5847491818
312 2 0.0 24.4890560644 3.8622916408 1.1647062652
313 2 0.0 26.5091532035 5.5457059086 1.7478580532
314 2 0.0 21.7188473723 8.6909703993 -3.1782042356
315 1 0.0 30.001292304 -1.7125999254 4.3833714116
316 1 0.0 27.4095733047 0.7050731008 -0.4070741445
317 1 0.0 26.5577178915 3.4527616934 1.4011484905
318 1 0.0 29.9104342916 2.0984509408 0.4857594508
319 1 0.0 28.5574314431 0.453191366 3.1329512265
320 1 0.0 28.8534341656 -1.4607181906 0.8433460406
321 2 0.0 28.5151381187 2.1712980169 -1.111370297
322 2 0.0 30.5352352578 3.8547122848 -0.5282185089
323 2 0.0 28.5151381408 3.5180294467 1.221236938
324 2 0.0 28.6059961973 -1.6397528382 2.7862416065
325 2 0.0 30.6260933143 0.0436614407 3.3693934391
326 2 0.0 26.6000111911 0.3879237271 3.312862662
327 2 0.0 31.1944888233 1.1536699991 -0.6660716846
328 2 0.0 28.8048694776 0.6322260246 1.1900556033
329 2 0.0 28.6059961752 -0.2930214305 5.1188488542
330 1 0.0 21.7611406277 6.9728638517 1.0661172282
331 1 0.0 22.9089987661 6.720982117 4.6061425992
332 1 0.0 24.2620016147 8.3662416917 1.9589508235
333 1 0.0 23.2050014887 4.8070725603 2.3165374133
334 1 0.0 26.2617151663 5.3666713644 3.6907535595
335 2 0.0 24.0145636023 8.1872070221 3.9018464022
336 2 0.0 23.829802499 6.5633339264 1.3025594408
337 2 0.0 24.2134368826 9.1124544883 -0.0269468042
338 2 0.0 22.1933397435 8.775771617 1.7225086109
339 2 0.0 21.8097053378 6.2266510662 3.0520149005
340 2 0.0 24.304294917 5.3014036111 3.870665112
341 2 0.0 22.2841977999 4.964720773 5.6201205589
342 2 0.0 24.304294939 6.6481350409 6.203272347
343 1 0.0 25.2047150402 1.807502233 4.0483401492
344 1 0.0 24.3528596271 4.5551908256 5.8565627843
345 1 0.0 27.7055760272 3.200880073 4.9411737446
346 1 0.0 26.3525731786 1.5556204983 7.5883655202
347 1 0.0 26.6485759012 -0.3582890584 5.2987603343
348 2 0.0 26.3102798543 3.2737271491 3.3440439968
349 2 0.0 28.3303769934 4.957141417 3.9271957848
350 2 0.0 26.3102798763 4.6204585789 5.6766512318
351 2 0.0 26.4011379328 -0.537323706 7.2416559002
352 2 0.0 24.3951529266 1.4903528593 7.7682769558
353 2 0.0 28.9896305588 2.2560991313 3.7893426092
354 2 0.0 26.6000112131 1.7346551568 5.645469897
355 1 0.0 21.0001432242 5.9095016926 6.771951707
356 1 0.0 22.9998567758 2.9099313652 8.503754443
357 2 0.0 24.1054215899 4.3761562814 7.7994582905
358 2 0.0 28.8987725933 6.0671499052 -0.1082692473
359 1 0.0 27.6147180175 7.0119308248 1.0435619008
360 1 0.0 29.6144315691 4.0123604974 2.7753646367
