# LAMMPS data file written by Ovito 3.10.6

6258 atoms
2 atom types

-75.0 125.0 xlo xhi
-75.0 75.0 ylo yhi
-75.0 75.0 zlo zhi

Masses

1 55.845  # Fe3+
2 15.9994  # O2-

Atoms  # charge

1 1 0.0 -12.7297551505 -19.1087716105 -6.5911460557
2 1 0.0 -12.7297551505 -19.1087716105 -2.5917189525
3 1 0.0 -10.1838040745 -20.5786771495 -4.2954298725
4 1 0.0 -10.1838040745 -20.5786771495 -0.2960027693
5 1 0.0 -12.7297551505 -19.1087716105 -9.4788677775
6 1 0.0 -10.1838040745 -20.5786771495 -7.1831515943
7 2 0.0 -10.9613398599 -18.9855975563 -3.4435744125
8 2 0.0 -11.1746836053 -22.0485826444 -3.4435744125
9 2 0.0 -9.4062683401 -21.9254085461 -5.7392907334
10 2 0.0 -11.7388755942 -20.5786771495 -5.7392907334
11 2 0.0 -9.4062683656 -19.2319457087 -5.7392907334
12 2 0.0 -13.5072908849 -20.7018512036 -3.4435744125
13 2 0.0 -11.9522193906 -20.4555030512 -1.1478580916
14 2 0.0 -14.2848266192 -19.1087716105 -1.1478580916
15 2 0.0 -11.9522193651 -17.7620402138 -1.1478580916
16 2 0.0 -11.1746836308 -19.1087716105 -8.0350069166
17 2 0.0 -13.5072908849 -17.7620402138 -8.0350069166
18 1 0.0 -12.7297551505 -19.1087716105 7.1831515943
19 1 0.0 -10.1838040745 -20.5786771495 9.4788677775
20 1 0.0 -12.7297551505 -19.1087716105 0.2960027693
21 1 0.0 -10.1838040745 -20.5786771495 2.5917189525
22 1 0.0 -12.7297551505 -19.1087716105 4.2954298725
23 1 0.0 -10.1838040745 -20.5786771495 6.5911460557
24 2 0.0 -10.9613398599 -18.9855975563 10.3307232375
25 2 0.0 -9.4062683656 -19.2319457087 8.0350069166
26 2 0.0 -10.9613398599 -21.9254085461 1.1478580916
27 2 0.0 -8.6287326058 -20.5786771495 1.1478580916
28 2 0.0 -11.9522193651 -17.7620402138 12.6264395584
29 2 0.0 -10.9613398344 -19.2319457087 1.1478580916
30 2 0.0 -11.1746836308 -19.1087716105 5.7392907334
31 2 0.0 -14.4981703901 -18.9855975563 3.4435744125
32 2 0.0 -9.1929245947 -22.0485826444 3.4435744125
33 2 0.0 -11.9522193397 -20.7018512477 3.4435744125
34 2 0.0 -13.5072908849 -17.7620402138 5.7392907334
35 1 0.0 -12.7297550995 -16.1689606206 -14.0703004193
36 2 0.0 -14.4981703901 -13.3523236849 -14.9221557416
37 1 0.0 -15.2757061755 -14.6990550816 -6.5911460557
38 1 0.0 -15.27570615 -17.6388661155 -4.8874352734
39 1 0.0 -15.2757061755 -14.6990550816 -2.5917189525
40 1 0.0 -12.7297550995 -16.1689606206 -4.2954298725
41 1 0.0 -15.27570615 -17.6388661155 -1.9997135516
42 1 0.0 -12.7297550995 -16.1689606206 -0.2960027693
43 1 0.0 -12.7297550995 -16.1689606206 -11.1825786975
44 1 0.0 -15.2757061755 -14.6990550816 -9.4788677775
45 1 0.0 -12.7297550995 -16.1689606206 -7.1831515943
46 1 0.0 -15.27570615 -17.6388661155 -8.8868623766
47 2 0.0 -13.5072908849 -14.5758810274 -3.4435744125
48 2 0.0 -13.7206346303 -17.6388661155 -3.4435744125
49 2 0.0 -11.9522193651 -17.5156920173 -5.7392907334
50 2 0.0 -14.2848266192 -16.1689606206 -5.7392907334
51 2 0.0 -11.9522193906 -14.8222291798 -5.7392907334
52 2 0.0 -16.0532419099 -16.2921346748 -3.4435744125
53 2 0.0 -11.1746836308 -16.1689606206 -12.6264395584
54 2 0.0 -14.4981704156 -16.0457865223 -1.1478580916
55 2 0.0 -16.8307776442 -14.6990550816 -1.1478580916
56 2 0.0 -14.4981703901 -13.3523236849 -1.1478580916
57 2 0.0 -13.5072908594 -14.8222291798 -12.6264395584
58 2 0.0 -16.0532418844 -16.0457865223 -8.0350069166
59 2 0.0 -13.7206346558 -14.6990550816 -8.0350069166
60 2 0.0 -17.0441214151 -14.5758810274 -10.3307232375
61 2 0.0 -11.7388756197 -17.6388661155 -10.3307232375
62 2 0.0 -14.4981703647 -16.2921347189 -10.3307232375
63 2 0.0 -16.0532419099 -13.3523236849 -8.0350069166
64 1 0.0 -15.2757061755 -14.6990550816 7.1831515943
65 1 0.0 -15.27570615 -17.6388661155 8.8868623766
66 1 0.0 -15.2757061755 -14.6990550816 11.1825786975
67 1 0.0 -12.7297550995 -16.1689606206 9.4788677775
68 1 0.0 -12.7297550995 -16.1689606206 13.4782948807
69 1 0.0 -15.27570615 -17.6388661155 1.9997135516
70 1 0.0 -15.2757061755 -14.6990550816 0.2960027693
71 1 0.0 -12.7297550995 -16.1689606206 2.5917189525
72 1 0.0 -15.2757061755 -14.6990550816 4.2954298725
73 1 0.0 -12.7297550995 -16.1689606206 6.5911460557
74 1 0.0 -15.27570615 -17.6388661155 4.8874352734
75 2 0.0 -13.5072908849 -14.5758810274 10.3307232375
76 2 0.0 -13.7206346303 -17.6388661155 10.3307232375
77 2 0.0 -11.9522193651 -17.5156920173 8.0350069166
78 2 0.0 -14.2848266192 -16.1689606206 8.0350069166
79 2 0.0 -11.9522193906 -14.8222291798 8.0350069166
80 2 0.0 -13.5072908849 -17.5156920173 1.1478580916
81 2 0.0 -11.1746836308 -16.1689606206 1.1478580916
82 2 0.0 -14.4981703901 -13.3523236849 12.6264395584
83 2 0.0 -13.5072908594 -14.8222291798 1.1478580916
84 2 0.0 -16.0532418844 -16.0457865223 5.7392907334
85 2 0.0 -13.7206346558 -14.6990550816 5.7392907334
86 2 0.0 -17.0441214151 -14.5758810274 3.4435744125
87 2 0.0 -11.7388756197 -17.6388661155 3.4435744125
88 2 0.0 -14.4981703647 -16.2921347189 3.4435744125
89 2 0.0 -16.0532419099 -13.3523236849 5.7392907334
90 2 0.0 -11.1746836308 -16.1689606206 14.9221557416
91 2 0.0 -13.5072908594 -14.8222291798 14.9221557416
92 1 0.0 -15.2757061245 -11.7592440917 -14.0703004193
93 2 0.0 -17.0441214151 -8.942607156 -14.9221557416
94 1 0.0 -17.8216572005 -10.2893385527 -6.5911460557
95 1 0.0 -17.821657175 -13.2291495866 -4.8874352734
96 1 0.0 -17.8216572005 -10.2893385527 -2.5917189525
97 1 0.0 -15.2757061245 -11.7592440917 -4.2954298725
98 1 0.0 -17.821657175 -13.2291495866 -1.9997135516
99 1 0.0 -15.2757061245 -11.7592440917 -0.2960027693
100 1 0.0 -17.8216572005 -10.2893385527 -13.4782948807
101 1 0.0 -15.2757061245 -11.7592440917 -11.1825786975
102 1 0.0 -17.8216572005 -10.2893385527 -9.4788677775
103 1 0.0 -15.2757061245 -11.7592440917 -7.1831515943
104 1 0.0 -17.821657175 -13.2291495866 -8.8868623766
105 2 0.0 -16.0532419099 -10.1661644985 -3.4435744125
106 2 0.0 -16.2665856553 -13.2291495866 -3.4435744125
107 2 0.0 -14.4981703901 -13.1059754884 -5.7392907334
108 2 0.0 -16.8307776442 -11.7592440917 -5.7392907334
109 2 0.0 -14.4981704156 -10.412512651 -5.7392907334
110 2 0.0 -18.5991929349 -11.8824181459 -3.4435744125
111 2 0.0 -16.0532419099 -13.1059754884 -12.6264395584
112 2 0.0 -13.7206346558 -11.7592440917 -12.6264395584
113 2 0.0 -17.0441214406 -11.6360699935 -1.1478580916
114 2 0.0 -19.3767286692 -10.2893385527 -1.1478580916
115 2 0.0 -17.0441214151 -8.942607156 -1.1478580916
116 2 0.0 -16.0532418844 -10.412512651 -12.6264395584
117 2 0.0 -18.5991929094 -11.6360699935 -8.0350069166
118 2 0.0 -16.2665856808 -10.2893385527 -8.0350069166
119 2 0.0 -19.5900724401 -10.1661644985 -10.3307232375
120 2 0.0 -14.2848266447 -13.2291495866 -10.3307232375
121 2 0.0 -17.0441213897 -11.88241819 -10.3307232375
122 2 0.0 -18.5991929349 -8.942607156 -8.0350069166
123 1 0.0 -17.8216572005 -10.2893385527 7.1831515943
124 1 0.0 -17.821657175 -13.2291495866 8.8868623766
125 1 0.0 -17.8216572005 -10.2893385527 11.1825786975
126 1 0.0 -15.2757061245 -11.7592440917 9.4788677775
127 1 0.0 -15.2757061245 -11.7592440917 13.4782948807
128 1 0.0 -17.821657175 -13.2291495866 1.9997135516
129 1 0.0 -17.8216572005 -10.2893385527 0.2960027693
130 1 0.0 -15.2757061245 -11.7592440917 2.5917189525
131 1 0.0 -17.8216572005 -10.2893385527 4.2954298725
132 1 0.0 -15.2757061245 -11.7592440917 6.5911460557
133 1 0.0 -17.821657175 -13.2291495866 4.8874352734
134 2 0.0 -16.0532419099 -10.1661644985 10.3307232375
135 2 0.0 -16.2665856553 -13.2291495866 10.3307232375
136 2 0.0 -14.4981703901 -13.1059754884 8.0350069166
137 2 0.0 -16.8307776442 -11.7592440917 8.0350069166
138 2 0.0 -14.4981704156 -10.412512651 8.0350069166
139 2 0.0 -18.5991929349 -11.8824181459 10.3307232375
140 2 0.0 -16.0532419099 -13.1059754884 1.1478580916
141 2 0.0 -13.7206346558 -11.7592440917 1.1478580916
142 2 0.0 -17.0441214406 -11.6360699935 12.6264395584
143 2 0.0 -17.0441214151 -8.942607156 12.6264395584
144 2 0.0 -16.0532418844 -10.412512651 1.1478580916
145 2 0.0 -18.5991929094 -11.6360699935 5.7392907334
146 2 0.0 -16.2665856808 -10.2893385527 5.7392907334
147 2 0.0 -19.5900724401 -10.1661644985 3.4435744125
148 2 0.0 -14.2848266447 -13.2291495866 3.4435744125
149 2 0.0 -17.0441213897 -11.88241819 3.4435744125
150 2 0.0 -18.5991929349 -8.942607156 5.7392907334
151 1 0.0 -17.8216572005 -10.2893385527 14.0703004193
152 2 0.0 -13.7206346558 -11.7592440917 14.9221557416
153 2 0.0 -16.0532418844 -10.412512651 14.9221557416
154 1 0.0 -17.8216571495 -7.3495275628 -14.0703004193
155 1 0.0 -20.3676082255 -5.8796220238 -6.5911460557
156 1 0.0 -20.3676082 -8.8194330578 -4.8874352734
157 1 0.0 -20.3676082255 -5.8796220238 -2.5917189525
158 1 0.0 -17.8216571495 -7.3495275628 -4.2954298725
159 1 0.0 -20.3676082 -8.8194330578 -1.9997135516
160 1 0.0 -17.8216571495 -7.3495275628 -0.2960027693
161 1 0.0 -17.8216571495 -7.3495275628 -11.1825786975
162 1 0.0 -20.3676082255 -5.8796220238 -9.4788677775
163 1 0.0 -17.8216571495 -7.3495275628 -7.1831515943
164 1 0.0 -20.3676082 -8.8194330578 -8.8868623766
165 2 0.0 -18.5991929349 -5.7564479696 -3.4435744125
166 2 0.0 -18.8125366803 -8.8194330578 -3.4435744125
167 2 0.0 -17.0441214151 -8.6962589595 -5.7392907334
168 2 0.0 -19.3767286692 -7.3495275628 -5.7392907334
169 2 0.0 -17.0441214406 -6.0027961221 -5.7392907334
170 2 0.0 -21.1451439599 -7.472701617 -3.4435744125
171 2 0.0 -18.5991929349 -8.6962589595 -12.6264395584
172 2 0.0 -16.2665856808 -7.3495275628 -12.6264395584
173 2 0.0 -19.5900724656 -7.2263534646 -1.1478580916
174 2 0.0 -21.9226796942 -5.8796220238 -1.1478580916
175 2 0.0 -19.5900724401 -4.5328906271 -1.1478580916
176 2 0.0 -18.5991929094 -6.0027961221 -12.6264395584
177 2 0.0 -21.1451439344 -7.2263534646 -8.0350069166
178 2 0.0 -18.8125367058 -5.8796220238 -8.0350069166
179 2 0.0 -16.8307776697 -8.8194330578 -10.3307232375
180 2 0.0 -19.5900724147 -7.4727016611 -10.3307232375
181 2 0.0 -21.1451439599 -4.5328906271 -8.0350069166
182 1 0.0 -20.3676082255 -5.8796220238 7.1831515943
183 1 0.0 -20.3676082 -8.8194330578 8.8868623766
184 1 0.0 -20.3676082255 -5.8796220238 11.1825786975
185 1 0.0 -17.8216571495 -7.3495275628 9.4788677775
186 1 0.0 -17.8216571495 -7.3495275628 13.4782948807
187 1 0.0 -20.3676082 -8.8194330578 1.9997135516
188 1 0.0 -20.3676082255 -5.8796220238 0.2960027693
189 1 0.0 -17.8216571495 -7.3495275628 2.5917189525
190 1 0.0 -20.3676082255 -5.8796220238 4.2954298725
191 1 0.0 -17.8216571495 -7.3495275628 6.5911460557
192 1 0.0 -20.3676082 -8.8194330578 4.8874352734
193 2 0.0 -18.5991929349 -5.7564479696 10.3307232375
194 2 0.0 -18.8125366803 -8.8194330578 10.3307232375
195 2 0.0 -17.0441214151 -8.6962589595 8.0350069166
196 2 0.0 -19.3767286692 -7.3495275628 8.0350069166
197 2 0.0 -17.0441214406 -6.0027961221 8.0350069166
198 2 0.0 -21.1451439599 -7.472701617 10.3307232375
199 2 0.0 -18.5991929349 -8.6962589595 1.1478580916
200 2 0.0 -16.2665856808 -7.3495275628 1.1478580916
201 2 0.0 -19.5900724656 -7.2263534646 12.6264395584
202 2 0.0 -19.5900724401 -4.5328906271 12.6264395584
203 2 0.0 -18.5991929094 -6.0027961221 1.1478580916
204 2 0.0 -21.1451439344 -7.2263534646 5.7392907334
205 2 0.0 -18.8125367058 -5.8796220238 5.7392907334
206 2 0.0 -22.1360234651 -5.7564479696 3.4435744125
207 2 0.0 -16.8307776697 -8.8194330578 3.4435744125
208 2 0.0 -19.5900724147 -7.4727016611 3.4435744125
209 2 0.0 -21.1451439599 -4.5328906271 5.7392907334
210 2 0.0 -16.2665856808 -7.3495275628 14.9221557416
211 2 0.0 -18.5991929094 -6.0027961221 14.9221557416
212 1 0.0 -20.3676081745 -2.939811034 -14.0703004193
213 1 0.0 -22.9135592505 -1.4699054949 -6.5911460557
214 1 0.0 -22.913559225 -4.4097165289 -4.8874352734
215 1 0.0 -22.9135592505 -1.4699054949 -2.5917189525
216 1 0.0 -20.3676081745 -2.939811034 -4.2954298725
217 1 0.0 -22.913559225 -4.4097165289 -1.9997135516
218 1 0.0 -20.3676081745 -2.939811034 -0.2960027693
219 1 0.0 -20.3676081745 -2.939811034 -11.1825786975
220 1 0.0 -22.9135592505 -1.4699054949 -9.4788677775
221 1 0.0 -20.3676081745 -2.939811034 -7.1831515943
222 1 0.0 -22.913559225 -4.4097165289 -8.8868623766
223 2 0.0 -21.1451439599 -1.3467314408 -3.4435744125
224 2 0.0 -21.3584877053 -4.4097165289 -3.4435744125
225 2 0.0 -19.5900724401 -4.2865424306 -5.7392907334
226 2 0.0 -21.9226796942 -2.939811034 -5.7392907334
227 2 0.0 -19.5900724656 -1.5930795932 -5.7392907334
228 2 0.0 -23.6910949849 -3.0629850881 -3.4435744125
229 2 0.0 -21.1451439599 -4.2865424306 -12.6264395584
230 2 0.0 -18.8125367058 -2.939811034 -12.6264395584
231 2 0.0 -22.1360234906 -2.8166369357 -1.1478580916
232 2 0.0 -24.4686307192 -1.4699054949 -1.1478580916
233 2 0.0 -22.1360234651 -0.1231740983 -1.1478580916
234 2 0.0 -21.1451439344 -1.5930795932 -12.6264395584
235 2 0.0 -21.3584877308 -1.4699054949 -8.0350069166
236 2 0.0 -19.3767286947 -4.4097165289 -10.3307232375
237 2 0.0 -22.1360234397 -3.0629851322 -10.3307232375
238 1 0.0 -22.9135592505 -1.4699054949 7.1831515943
239 1 0.0 -22.913559225 -4.4097165289 8.8868623766
240 1 0.0 -20.3676081745 -2.939811034 9.4788677775
241 1 0.0 -20.3676081745 -2.939811034 13.4782948807
242 1 0.0 -22.913559225 -4.4097165289 1.9997135516
243 1 0.0 -22.9135592505 -1.4699054949 0.2960027693
244 1 0.0 -20.3676081745 -2.939811034 2.5917189525
245 1 0.0 -22.9135592505 -1.4699054949 4.2954298725
246 1 0.0 -20.3676081745 -2.939811034 6.5911460557
247 1 0.0 -22.913559225 -4.4097165289 4.8874352734
248 2 0.0 -21.1451439599 -1.3467314408 10.3307232375
249 2 0.0 -21.3584877053 -4.4097165289 10.3307232375
250 2 0.0 -19.5900724401 -4.2865424306 8.0350069166
251 2 0.0 -21.9226796942 -2.939811034 8.0350069166
252 2 0.0 -19.5900724656 -1.5930795932 8.0350069166
253 2 0.0 -21.1451439599 -4.2865424306 1.1478580916
254 2 0.0 -18.8125367058 -2.939811034 1.1478580916
255 2 0.0 -21.1451439344 -1.5930795932 1.1478580916
256 2 0.0 -23.6910949594 -2.8166369357 5.7392907334
257 2 0.0 -21.3584877308 -1.4699054949 5.7392907334
258 2 0.0 -24.6819744901 -1.3467314408 3.4435744125
259 2 0.0 -19.3767286947 -4.4097165289 3.4435744125
260 2 0.0 -22.1360234397 -3.0629851322 3.4435744125
261 2 0.0 -23.6910949849 -0.1231740983 5.7392907334
262 2 0.0 -18.8125367058 -2.939811034 14.9221557416
263 1 0.0 -22.9135591995 1.4699054949 -4.2954298725
264 1 0.0 -22.9135591995 1.4699054949 -0.2960027693
265 1 0.0 -22.9135591995 1.4699054949 -7.1831515943
266 2 0.0 -23.6910949849 3.0629850881 -3.4435744125
267 2 0.0 -23.9044387303 0.0 -3.4435744125
268 2 0.0 -22.1360234651 0.1231740983 -5.7392907334
269 2 0.0 -22.1360234906 2.8166369357 -5.7392907334
270 2 0.0 -21.3584877308 1.4699054949 -12.6264395584
271 2 0.0 -24.6819745156 1.5930795932 -1.1478580916
272 2 0.0 -21.9226797197 0.0 -10.3307232375
273 1 0.0 -22.9135591995 1.4699054949 9.4788677775
274 1 0.0 -22.9135591995 1.4699054949 2.5917189525
275 1 0.0 -22.9135591995 1.4699054949 6.5911460557
276 2 0.0 -22.1360234651 0.1231740983 8.0350069166
277 2 0.0 -22.1360234906 2.8166369357 8.0350069166
278 2 0.0 -23.6910949849 0.1231740983 1.1478580916
279 2 0.0 -21.3584877308 1.4699054949 1.1478580916
280 2 0.0 -23.6910949594 2.8166369357 1.1478580916
281 2 0.0 -23.9044387558 2.939811034 5.7392907334
282 2 0.0 -21.9226797197 0.0 3.4435744125
283 2 0.0 -24.6819744647 1.3467313967 3.4435744125
284 2 0.0 -23.9044387558 5.8796220238 1.1478580916
285 2 0.0 -6.8603173151 -17.7620402138 -14.9221557416
286 1 0.0 -7.6378531005 -19.1087716105 -6.5911460557
287 1 0.0 -7.637853075 -22.0485826444 -4.8874352734
288 1 0.0 -7.6378531005 -19.1087716105 -2.5917189525
289 1 0.0 -5.0919020245 -20.5786771495 -4.2954298725
290 1 0.0 -7.637853075 -22.0485826444 -1.9997135516
291 1 0.0 -5.0919020245 -20.5786771495 -0.2960027693
292 1 0.0 -7.6378531005 -19.1087716105 -13.4782948807
293 1 0.0 -5.0919020245 -20.5786771495 -11.1825786975
294 1 0.0 -7.6378531005 -19.1087716105 -9.4788677775
295 1 0.0 -5.0919020245 -20.5786771495 -7.1831515943
296 1 0.0 -7.637853075 -22.0485826444 -8.8868623766
297 2 0.0 -5.8694378099 -18.9855975563 -3.4435744125
298 2 0.0 -6.0827815553 -22.0485826444 -3.4435744125
299 2 0.0 -4.3143662901 -21.9254085461 -5.7392907334
300 2 0.0 -6.6469735442 -20.5786771495 -5.7392907334
301 2 0.0 -4.3143663156 -19.2319457087 -5.7392907334
302 2 0.0 -8.4153888349 -20.7018512036 -3.4435744125
303 2 0.0 -3.5368305558 -20.5786771495 -12.6264395584
304 2 0.0 -6.8603173406 -20.4555030512 -1.1478580916
305 2 0.0 -9.1929245692 -19.1087716105 -1.1478580916
306 2 0.0 -6.8603173151 -17.7620402138 -1.1478580916
307 2 0.0 -5.8694377844 -19.2319457087 -12.6264395584
308 2 0.0 -8.4153888094 -20.4555030512 -8.0350069166
309 2 0.0 -6.0827815808 -19.1087716105 -8.0350069166
310 2 0.0 -9.4062683401 -18.9855975563 -10.3307232375
311 2 0.0 -4.1010225447 -22.0485826444 -10.3307232375
312 2 0.0 -6.8603172897 -20.7018512477 -10.3307232375
313 2 0.0 -8.4153888349 -17.7620402138 -8.0350069166
314 1 0.0 -7.6378531005 -19.1087716105 7.1831515943
315 1 0.0 -7.637853075 -22.0485826444 8.8868623766
316 1 0.0 -7.6378531005 -19.1087716105 11.1825786975
317 1 0.0 -5.0919020245 -20.5786771495 9.4788677775
318 1 0.0 -7.637853075 -22.0485826444 1.9997135516
319 1 0.0 -7.6378531005 -19.1087716105 0.2960027693
320 1 0.0 -5.0919020245 -20.5786771495 2.5917189525
321 1 0.0 -7.6378531005 -19.1087716105 4.2954298725
322 1 0.0 -5.0919020245 -20.5786771495 6.5911460557
323 1 0.0 -7.637853075 -22.0485826444 4.8874352734
324 2 0.0 -5.8694378099 -18.9855975563 10.3307232375
325 2 0.0 -4.3143662901 -21.9254085461 8.0350069166
326 2 0.0 -6.6469735442 -20.5786771495 8.0350069166
327 2 0.0 -4.3143663156 -19.2319457087 8.0350069166
328 2 0.0 -8.4153888349 -20.7018512036 10.3307232375
329 2 0.0 -5.8694378099 -21.9254085461 1.1478580916
330 2 0.0 -3.5368305558 -20.5786771495 1.1478580916
331 2 0.0 -6.8603173406 -20.4555030512 12.6264395584
332 2 0.0 -9.1929245692 -19.1087716105 12.6264395584
333 2 0.0 -6.8603173151 -17.7620402138 12.6264395584
334 2 0.0 -5.8694377844 -19.2319457087 1.1478580916
335 2 0.0 -8.4153888094 -20.4555030512 5.7392907334
336 2 0.0 -6.0827815808 -19.1087716105 5.7392907334
337 2 0.0 -9.4062683401 -18.9855975563 3.4435744125
338 2 0.0 -4.1010225447 -22.0485826444 3.4435744125
339 2 0.0 -6.8603172897 -20.7018512477 3.4435744125
340 2 0.0 -8.4153888349 -17.7620402138 5.7392907334
341 1 0.0 -7.6378531005 -19.1087716105 14.0703004193
342 1 0.0 -10.1838041255 -14.6990550816 -16.3660166025
343 1 0.0 -7.6378530495 -16.1689606206 -14.0703004193
344 2 0.0 -8.4153888349 -14.5758810274 -17.2178720625
345 2 0.0 -9.4062683656 -16.0457865223 -14.9221557416
346 2 0.0 -11.7388755942 -14.6990550816 -14.9221557416
347 2 0.0 -9.4062683401 -13.3523236849 -14.9221557416
348 1 0.0 -10.1838041255 -14.6990550816 -6.5911460557
349 1 0.0 -10.1838041 -17.6388661155 -4.8874352734
350 1 0.0 -10.1838041255 -14.6990550816 -2.5917189525
351 1 0.0 -7.6378530495 -16.1689606206 -4.2954298725
352 1 0.0 -10.1838041 -17.6388661155 -1.9997135516
353 1 0.0 -7.6378530495 -16.1689606206 -0.2960027693
354 1 0.0 -10.1838041 -17.6388661155 -11.7745840984
355 1 0.0 -10.1838041255 -14.6990550816 -13.4782948807
356 1 0.0 -7.6378530495 -16.1689606206 -11.1825786975
357 1 0.0 -10.1838041255 -14.6990550816 -9.4788677775
358 1 0.0 -7.6378530495 -16.1689606206 -7.1831515943
359 1 0.0 -10.1838041 -17.6388661155 -8.8868623766
360 2 0.0 -8.4153888349 -14.5758810274 -3.4435744125
361 2 0.0 -8.6287325803 -17.6388661155 -3.4435744125
362 2 0.0 -6.8603173151 -17.5156920173 -5.7392907334
363 2 0.0 -9.1929245692 -16.1689606206 -5.7392907334
364 2 0.0 -6.8603173406 -14.8222291798 -5.7392907334
365 2 0.0 -10.9613398599 -16.2921346748 -3.4435744125
366 2 0.0 -8.4153888349 -17.5156920173 -12.6264395584
367 2 0.0 -6.0827815808 -16.1689606206 -12.6264395584
368 2 0.0 -9.4062683656 -16.0457865223 -1.1478580916
369 2 0.0 -11.7388755942 -14.6990550816 -1.1478580916
370 2 0.0 -9.4062683401 -13.3523236849 -1.1478580916
371 2 0.0 -8.4153888094 -14.8222291798 -12.6264395584
372 2 0.0 -10.9613398344 -16.0457865223 -8.0350069166
373 2 0.0 -8.6287326058 -14.6990550816 -8.0350069166
374 2 0.0 -11.9522193651 -14.5758810274 -10.3307232375
375 2 0.0 -6.6469735697 -17.6388661155 -10.3307232375
376 2 0.0 -9.4062683147 -16.2921347189 -10.3307232375
377 2 0.0 -10.9613398599 -13.3523236849 -8.0350069166
378 1 0.0 -10.1838041255 -14.6990550816 7.1831515943
379 1 0.0 -10.1838041 -17.6388661155 8.8868623766
380 1 0.0 -10.1838041255 -14.6990550816 11.1825786975
381 1 0.0 -7.6378530495 -16.1689606206 9.4788677775
382 1 0.0 -10.1838041 -17.6388661155 11.7745840984
383 1 0.0 -7.6378530495 -16.1689606206 13.4782948807
384 1 0.0 -10.1838041 -17.6388661155 1.9997135516
385 1 0.0 -10.1838041255 -14.6990550816 0.2960027693
386 1 0.0 -7.6378530495 -16.1689606206 2.5917189525
387 1 0.0 -10.1838041255 -14.6990550816 4.2954298725
388 1 0.0 -7.6378530495 -16.1689606206 6.5911460557
389 1 0.0 -10.1838041 -17.6388661155 4.8874352734
390 2 0.0 -8.4153888349 -14.5758810274 10.3307232375
391 2 0.0 -8.6287325803 -17.6388661155 10.3307232375
392 2 0.0 -6.8603173151 -17.5156920173 8.0350069166
393 2 0.0 -9.1929245692 -16.1689606206 8.0350069166
394 2 0.0 -6.8603173406 -14.8222291798 8.0350069166
395 2 0.0 -10.9613398599 -16.2921346748 10.3307232375
396 2 0.0 -8.4153888349 -17.5156920173 1.1478580916
397 2 0.0 -6.0827815808 -16.1689606206 1.1478580916
398 2 0.0 -9.4062683656 -16.0457865223 12.6264395584
399 2 0.0 -11.7388755942 -14.6990550816 12.6264395584
400 2 0.0 -9.4062683401 -13.3523236849 12.6264395584
401 2 0.0 -8.4153888094 -14.8222291798 1.1478580916
402 2 0.0 -10.9613398344 -16.0457865223 5.7392907334
403 2 0.0 -8.6287326058 -14.6990550816 5.7392907334
404 2 0.0 -11.9522193651 -14.5758810274 3.4435744125
405 2 0.0 -6.6469735697 -17.6388661155 3.4435744125
406 2 0.0 -9.4062683147 -16.2921347189 3.4435744125
407 2 0.0 -10.9613398599 -13.3523236849 5.7392907334
408 1 0.0 -10.1838041255 -14.6990550816 14.0703004193
409 1 0.0 -7.6378530495 -16.1689606206 16.3660166025
410 2 0.0 -8.4153888349 -17.5156920173 14.9221557416
411 2 0.0 -6.0827815808 -16.1689606206 14.9221557416
412 2 0.0 -8.4153888094 -14.8222291798 14.9221557416
413 1 0.0 -12.7297551505 -10.2893385527 -16.3660166025
414 1 0.0 -10.1838040745 -11.7592440917 -18.0697275225
415 1 0.0 -12.729755125 -13.2291495866 -15.7740112016
416 1 0.0 -10.1838040745 -11.7592440917 -14.0703004193
417 2 0.0 -10.9613398599 -10.1661644985 -17.2178720625
418 2 0.0 -11.1746836053 -13.2291495866 -17.2178720625
419 2 0.0 -9.4062683656 -10.412512651 -19.5135883834
420 2 0.0 -13.5072908849 -11.8824181459 -17.2178720625
421 2 0.0 -11.9522193906 -11.6360699935 -14.9221557416
422 2 0.0 -14.2848266192 -10.2893385527 -14.9221557416
423 2 0.0 -11.9522193651 -8.942607156 -14.9221557416
424 1 0.0 -12.7297551505 -10.2893385527 -6.5911460557
425 1 0.0 -12.729755125 -13.2291495866 -4.8874352734
426 1 0.0 -12.7297551505 -10.2893385527 -2.5917189525
427 1 0.0 -10.1838040745 -11.7592440917 -4.2954298725
428 1 0.0 -12.729755125 -13.2291495866 -1.9997135516
429 1 0.0 -10.1838040745 -11.7592440917 -0.2960027693
430 1 0.0 -12.729755125 -13.2291495866 -11.7745840984
431 1 0.0 -12.7297551505 -10.2893385527 -13.4782948807
432 1 0.0 -10.1838040745 -11.7592440917 -11.1825786975
433 1 0.0 -12.7297551505 -10.2893385527 -9.4788677775
434 1 0.0 -10.1838040745 -11.7592440917 -7.1831515943
435 1 0.0 -12.729755125 -13.2291495866 -8.8868623766
436 2 0.0 -10.9613398599 -10.1661644985 -3.4435744125
437 2 0.0 -11.1746836053 -13.2291495866 -3.4435744125
438 2 0.0 -9.4062683401 -13.1059754884 -5.7392907334
439 2 0.0 -11.7388755942 -11.7592440917 -5.7392907334
440 2 0.0 -9.4062683656 -10.412512651 -5.7392907334
441 2 0.0 -13.5072908849 -11.8824181459 -3.4435744125
442 2 0.0 -10.9613398599 -13.1059754884 -12.6264395584
443 2 0.0 -8.6287326058 -11.7592440917 -12.6264395584
444 2 0.0 -11.9522193906 -11.6360699935 -1.1478580916
445 2 0.0 -14.2848266192 -10.2893385527 -1.1478580916
446 2 0.0 -11.9522193651 -8.942607156 -1.1478580916
447 2 0.0 -10.9613398344 -10.412512651 -12.6264395584
448 2 0.0 -13.5072908594 -11.6360699935 -8.0350069166
449 2 0.0 -11.1746836308 -10.2893385527 -8.0350069166
450 2 0.0 -14.4981703901 -10.1661644985 -10.3307232375
451 2 0.0 -9.1929245947 -13.2291495866 -10.3307232375
452 2 0.0 -11.9522193397 -11.88241819 -10.3307232375
453 2 0.0 -13.5072908849 -8.942607156 -8.0350069166
454 1 0.0 -12.7297551505 -10.2893385527 7.1831515943
455 1 0.0 -12.729755125 -13.2291495866 8.8868623766
456 1 0.0 -12.7297551505 -10.2893385527 11.1825786975
457 1 0.0 -10.1838040745 -11.7592440917 9.4788677775
458 1 0.0 -12.729755125 -13.2291495866 11.7745840984
459 1 0.0 -10.1838040745 -11.7592440917 13.4782948807
460 1 0.0 -12.729755125 -13.2291495866 1.9997135516
461 1 0.0 -12.7297551505 -10.2893385527 0.2960027693
462 1 0.0 -10.1838040745 -11.7592440917 2.5917189525
463 1 0.0 -12.7297551505 -10.2893385527 4.2954298725
464 1 0.0 -10.1838040745 -11.7592440917 6.5911460557
465 1 0.0 -12.729755125 -13.2291495866 4.8874352734
466 2 0.0 -10.9613398599 -10.1661644985 10.3307232375
467 2 0.0 -11.1746836053 -13.2291495866 10.3307232375
468 2 0.0 -9.4062683401 -13.1059754884 8.0350069166
469 2 0.0 -11.7388755942 -11.7592440917 8.0350069166
470 2 0.0 -9.4062683656 -10.412512651 8.0350069166
471 2 0.0 -13.5072908849 -11.8824181459 10.3307232375
472 2 0.0 -10.9613398599 -13.1059754884 1.1478580916
473 2 0.0 -8.6287326058 -11.7592440917 1.1478580916
474 2 0.0 -11.9522193906 -11.6360699935 12.6264395584
475 2 0.0 -14.2848266192 -10.2893385527 12.6264395584
476 2 0.0 -11.9522193651 -8.942607156 12.6264395584
477 2 0.0 -10.9613398344 -10.412512651 1.1478580916
478 2 0.0 -13.5072908594 -11.6360699935 5.7392907334
479 2 0.0 -11.1746836308 -10.2893385527 5.7392907334
480 2 0.0 -14.4981703901 -10.1661644985 3.4435744125
481 2 0.0 -9.1929245947 -13.2291495866 3.4435744125
482 2 0.0 -11.9522193397 -11.88241819 3.4435744125
483 2 0.0 -13.5072908849 -8.942607156 5.7392907334
484 1 0.0 -12.729755125 -13.2291495866 15.7740112016
485 1 0.0 -12.7297551505 -10.2893385527 14.0703004193
486 1 0.0 -10.1838040745 -11.7592440917 16.3660166025
487 1 0.0 -12.7297551505 -10.2893385527 18.0697275225
488 2 0.0 -10.9613398599 -13.1059754884 14.9221557416
489 2 0.0 -8.6287326058 -11.7592440917 14.9221557416
490 2 0.0 -10.9613398344 -10.412512651 14.9221557416
491 2 0.0 -11.1746836308 -10.2893385527 19.5135883834
492 2 0.0 -14.4981703901 -10.1661644985 17.2178720625
493 2 0.0 -9.1929245947 -13.2291495866 17.2178720625
494 2 0.0 -11.9522193397 -11.88241819 17.2178720625
495 1 0.0 -15.2757061755 -5.8796220238 -16.3660166025
496 1 0.0 -12.7297550995 -7.3495275628 -18.0697275225
497 1 0.0 -15.27570615 -8.8194330578 -15.7740112016
498 1 0.0 -12.7297550995 -7.3495275628 -14.0703004193
499 2 0.0 -13.5072908849 -5.7564479696 -17.2178720625
500 2 0.0 -13.7206346303 -8.8194330578 -17.2178720625
501 2 0.0 -11.9522193651 -8.6962589595 -19.5135883834
502 2 0.0 -11.9522193906 -6.0027961221 -19.5135883834
503 2 0.0 -16.0532419099 -7.472701617 -17.2178720625
504 2 0.0 -14.4981704156 -7.2263534646 -14.9221557416
505 2 0.0 -16.8307776442 -5.8796220238 -14.9221557416
506 2 0.0 -14.4981703901 -4.5328906271 -14.9221557416
507 1 0.0 -15.2757061755 -5.8796220238 -6.5911460557
508 1 0.0 -15.27570615 -8.8194330578 -4.8874352734
509 1 0.0 -15.2757061755 -5.8796220238 -2.5917189525
510 1 0.0 -12.7297550995 -7.3495275628 -4.2954298725
511 1 0.0 -15.27570615 -8.8194330578 -1.9997135516
512 1 0.0 -12.7297550995 -7.3495275628 -0.2960027693
513 1 0.0 -15.27570615 -8.8194330578 -11.7745840984
514 1 0.0 -15.2757061755 -5.8796220238 -13.4782948807
515 1 0.0 -12.7297550995 -7.3495275628 -11.1825786975
516 1 0.0 -15.2757061755 -5.8796220238 -9.4788677775
517 1 0.0 -12.7297550995 -7.3495275628 -7.1831515943
518 1 0.0 -15.27570615 -8.8194330578 -8.8868623766
519 2 0.0 -13.5072908849 -5.7564479696 -3.4435744125
520 2 0.0 -13.7206346303 -8.8194330578 -3.4435744125
521 2 0.0 -11.9522193651 -8.6962589595 -5.7392907334
522 2 0.0 -14.2848266192 -7.3495275628 -5.7392907334
523 2 0.0 -11.9522193906 -6.0027961221 -5.7392907334
524 2 0.0 -16.0532419099 -7.472701617 -3.4435744125
525 2 0.0 -13.5072908849 -8.6962589595 -12.6264395584
526 2 0.0 -11.1746836308 -7.3495275628 -12.6264395584
527 2 0.0 -14.4981704156 -7.2263534646 -1.1478580916
528 2 0.0 -16.8307776442 -5.8796220238 -1.1478580916
529 2 0.0 -14.4981703901 -4.5328906271 -1.1478580916
530 2 0.0 -13.5072908594 -6.0027961221 -12.6264395584
531 2 0.0 -16.0532418844 -7.2263534646 -8.0350069166
532 2 0.0 -13.7206346558 -5.8796220238 -8.0350069166
533 2 0.0 -17.0441214151 -5.7564479696 -10.3307232375
534 2 0.0 -11.7388756197 -8.8194330578 -10.3307232375
535 2 0.0 -14.4981703647 -7.4727016611 -10.3307232375
536 2 0.0 -16.0532419099 -4.5328906271 -8.0350069166
537 1 0.0 -15.2757061755 -5.8796220238 7.1831515943
538 1 0.0 -15.27570615 -8.8194330578 8.8868623766
539 1 0.0 -15.2757061755 -5.8796220238 11.1825786975
540 1 0.0 -12.7297550995 -7.3495275628 9.4788677775
541 1 0.0 -15.27570615 -8.8194330578 11.7745840984
542 1 0.0 -12.7297550995 -7.3495275628 13.4782948807
543 1 0.0 -15.27570615 -8.8194330578 1.9997135516
544 1 0.0 -15.2757061755 -5.8796220238 0.2960027693
545 1 0.0 -12.7297550995 -7.3495275628 2.5917189525
546 1 0.0 -15.2757061755 -5.8796220238 4.2954298725
547 1 0.0 -12.7297550995 -7.3495275628 6.5911460557
548 1 0.0 -15.27570615 -8.8194330578 4.8874352734
549 2 0.0 -13.5072908849 -5.7564479696 10.3307232375
550 2 0.0 -13.7206346303 -8.8194330578 10.3307232375
551 2 0.0 -11.9522193651 -8.6962589595 8.0350069166
552 2 0.0 -14.2848266192 -7.3495275628 8.0350069166
553 2 0.0 -11.9522193906 -6.0027961221 8.0350069166
554 2 0.0 -16.0532419099 -7.472701617 10.3307232375
555 2 0.0 -13.5072908849 -8.6962589595 1.1478580916
556 2 0.0 -11.1746836308 -7.3495275628 1.1478580916
557 2 0.0 -14.4981704156 -7.2263534646 12.6264395584
558 2 0.0 -16.8307776442 -5.8796220238 12.6264395584
559 2 0.0 -14.4981703901 -4.5328906271 12.6264395584
560 2 0.0 -13.5072908594 -6.0027961221 1.1478580916
561 2 0.0 -16.0532418844 -7.2263534646 5.7392907334
562 2 0.0 -13.7206346558 -5.8796220238 5.7392907334
563 2 0.0 -17.0441214151 -5.7564479696 3.4435744125
564 2 0.0 -11.7388756197 -8.8194330578 3.4435744125
565 2 0.0 -14.4981703647 -7.4727016611 3.4435744125