# LAMMPS data file written by Ovito 3.10.6

11028 atoms
2 atom types

-30.0 30.0 xlo xhi
-30.0 30.0 ylo yhi
-30.0 30.0 zlo zhi

Masses

1 55.845  # Fe3+
2 15.9994  # O2-

Atoms  # atomic

1 2 -17.0441214406 -23.6416622376 -5.7392907334
2 2 -19.5900724401 -22.1717567427 -1.1478580916
3 2 -16.2665856808 -24.9883936784 1.1478580916
4 1 -22.9135592505 -19.1087716105 -2.5917189525
5 1 -20.3676081745 -20.5786771495 -4.2954298725
6 1 -20.3676081745 -20.5786771495 -0.2960027693
7 1 -20.3676081745 -20.5786771495 -7.1831515943
8 2 -21.1451439599 -18.9855975563 -3.4435744125
9 2 -19.5900724401 -21.9254085461 -5.7392907334
10 2 -19.5900724656 -19.2319457087 -5.7392907334
11 2 -22.1360234651 -17.7620402138 -1.1478580916
12 2 -21.3584877308 -19.1087716105 -8.0350069166
13 1 -22.9135592505 -19.1087716105 0.2960027693
14 1 -20.3676081745 -20.5786771495 2.5917189525
15 1 -20.3676081745 -20.5786771495 6.5911460557
16 2 -19.5900724656 -19.2319457087 8.0350069166
17 2 -18.8125367058 -20.5786771495 1.1478580916
18 2 -21.1451439344 -19.2319457087 1.1478580916
19 2 -21.3584877308 -19.1087716105 5.7392907334
20 2 -19.3767286947 -22.0485826444 3.4435744125
21 1 -25.4595102755 -14.6990550816 -2.5917189525
22 1 -22.9135591995 -16.1689606206 -4.2954298725
23 1 -22.9135591995 -16.1689606206 -0.2960027693
24 1 -22.9135591995 -16.1689606206 -7.1831515943
25 2 -23.6910949849 -14.5758810274 -3.4435744125
26 2 -23.9044387303 -17.6388661155 -3.4435744125
27 2 -22.1360234651 -17.5156920173 -5.7392907334
28 2 -24.4686307192 -16.1689606206 -5.7392907334
29 2 -22.1360234906 -14.8222291798 -5.7392907334
30 2 -21.3584877308 -16.1689606206 -12.6264395584
31 2 -24.6819745156 -16.0457865223 -1.1478580916
32 2 -24.6819744901 -13.3523236849 -1.1478580916
33 2 -23.9044387558 -14.6990550816 -8.0350069166
34 2 -21.9226797197 -17.6388661155 -10.3307232375
35 1 -22.9135591995 -16.1689606206 9.4788677775
36 1 -25.4595102755 -14.6990550816 0.2960027693
37 1 -22.9135591995 -16.1689606206 2.5917189525
38 1 -25.4595102755 -14.6990550816 4.2954298725
39 1 -22.9135591995 -16.1689606206 6.5911460557
40 2 -23.6910949849 -14.5758810274 10.3307232375
41 2 -22.1360234651 -17.5156920173 8.0350069166
42 2 -22.1360234906 -14.8222291798 8.0350069166
43 2 -23.6910949849 -17.5156920173 1.1478580916
44 2 -21.3584877308 -16.1689606206 1.1478580916
45 2 -23.6910949594 -14.8222291798 1.1478580916
46 2 -23.9044387558 -14.6990550816 5.7392907334
47 2 -21.9226797197 -17.6388661155 3.4435744125
48 2 -24.6819744647 -16.2921347189 3.4435744125
49 2 -26.2370460099 -13.3523236849 5.7392907334
50 1 -28.0054613005 -10.2893385527 -2.5917189525
51 1 -25.4595102245 -11.7592440917 -4.2954298725
52 1 -25.4595102245 -11.7592440917 -0.2960027693
53 1 -25.4595102245 -11.7592440917 -7.1831515943
54 2 -26.2370460099 -10.1661644985 -3.4435744125
55 2 -26.4503897553 -13.2291495866 -3.4435744125
56 2 -24.6819744901 -13.1059754884 -5.7392907334
57 2 -24.6819745156 -10.412512651 -5.7392907334
58 2 -23.9044387558 -11.7592440917 -12.6264395584
59 2 -27.2279255406 -11.6360699935 -1.1478580916
60 2 -27.2279255151 -8.942607156 -1.1478580916
61 2 -26.4503897808 -10.2893385527 -8.0350069166
62 2 -24.4686307447 -13.2291495866 -10.3307232375
63 1 -25.4595102245 -11.7592440917 9.4788677775
64 1 -28.0054613005 -10.2893385527 0.2960027693
65 1 -25.4595102245 -11.7592440917 2.5917189525
66 1 -25.4595102245 -11.7592440917 6.5911460557
67 2 -26.2370460099 -10.1661644985 10.3307232375
68 2 -24.6819744901 -13.1059754884 8.0350069166
69 2 -24.6819745156 -10.412512651 8.0350069166
70 2 -26.2370460099 -13.1059754884 1.1478580916
71 2 -23.9044387558 -11.7592440917 1.1478580916
72 2 -26.2370459844 -10.412512651 1.1478580916
73 2 -26.4503897808 -10.2893385527 5.7392907334
74 2 -24.4686307447 -13.2291495866 3.4435744125
75 2 -27.2279254897 -11.88241819 3.4435744125
76 1 -28.0054612495 -7.3495275628 -4.2954298725
77 1 -28.0054612495 -7.3495275628 -0.2960027693
78 1 -28.0054612495 -7.3495275628 -7.1831515943
79 2 -28.7829970349 -5.7564479696 -3.4435744125
80 2 -27.2279255151 -8.6962589595 -5.7392907334
81 2 -27.2279255406 -6.0027961221 -5.7392907334
82 1 -28.0054612495 -7.3495275628 2.5917189525
83 1 -28.0054612495 -7.3495275628 6.5911460557
84 2 -27.2279255151 -8.6962589595 8.0350069166
85 2 -27.2279255406 -6.0027961221 8.0350069166
86 2 -26.4503897808 -7.3495275628 1.1478580916
87 2 -28.7829970094 -6.0027961221 1.1478580916
88 2 -27.0145817697 -8.8194330578 3.4435744125
89 2 -28.9963408058 -2.939811034 1.1478580916
90 2 -11.9522193651 -26.5814732716 -1.1478580916
91 1 -15.2757061755 -23.5184881393 -6.5911460557
92 1 -15.2757061755 -23.5184881393 -2.5917189525
93 1 -12.7297550995 -24.9883936784 -4.2954298725
94 1 -12.7297550995 -24.9883936784 -0.2960027693
95 1 -15.2757061755 -23.5184881393 -9.4788677775
96 1 -12.7297550995 -24.9883936784 -7.1831515943
97 2 -13.5072908849 -23.3953140852 -3.4435744125
98 2 -11.9522193651 -26.335125075 -5.7392907334
99 2 -14.2848266192 -24.9883936784 -5.7392907334
100 2 -11.9522193906 -23.6416622376 -5.7392907334
101 2 -14.4981704156 -24.8652195801 -1.1478580916
102 2 -16.8307776442 -23.5184881393 -1.1478580916
103 2 -14.4981703901 -22.1717567427 -1.1478580916
104 2 -13.7206346558 -23.5184881393 -8.0350069166
105 2 -16.0532419099 -22.1717567427 -8.0350069166
106 1 -15.2757061755 -23.5184881393 7.1831515943
107 1 -12.7297550995 -24.9883936784 9.4788677775
108 1 -15.2757061755 -23.5184881393 0.2960027693
109 1 -12.7297550995 -24.9883936784 2.5917189525
110 1 -15.2757061755 -23.5184881393 4.2954298725
111 1 -12.7297550995 -24.9883936784 6.5911460557
112 2 -13.5072908849 -23.3953140852 10.3307232375
113 2 -14.2848266192 -24.9883936784 8.0350069166
114 2 -11.9522193906 -23.6416622376 8.0350069166
115 2 -13.5072908849 -26.335125075 1.1478580916
116 2 -11.1746836308 -24.9883936784 1.1478580916
117 2 -14.4981703901 -22.1717567427 12.6264395584
118 2 -13.5072908594 -23.6416622376 1.1478580916
119 2 -13.7206346558 -23.5184881393 5.7392907334
120 2 -17.0441214151 -23.3953140852 3.4435744125
121 2 -11.7388756197 -26.4582991733 3.4435744125
122 2 -14.4981703647 -25.1115677766 3.4435744125
123 2 -16.0532419099 -22.1717567427 5.7392907334
124 1 -15.2757061245 -20.5786771495 -14.0703004193
125 2 -17.0441214151 -17.7620402138 -14.9221557416
126 1 -17.8216572005 -19.1087716105 -6.5911460557
127 1 -17.821657175 -22.0485826444 -4.8874352734
128 1 -17.8216572005 -19.1087716105 -2.5917189525
129 1 -15.2757061245 -20.5786771495 -4.2954298725
130 1 -17.821657175 -22.0485826444 -1.9997135516
131 1 -15.2757061245 -20.5786771495 -0.2960027693
132 1 -17.8216572005 -19.1087716105 -13.4782948807
133 1 -15.2757061245 -20.5786771495 -11.1825786975
134 1 -17.8216572005 -19.1087716105 -9.4788677775
135 1 -15.2757061245 -20.5786771495 -7.1831515943
136 1 -17.821657175 -22.0485826444 -8.8868623766
137 2 -16.0532419099 -18.9855975563 -3.4435744125
138 2 -16.2665856553 -22.0485826444 -3.4435744125
139 2 -14.4981703901 -21.9254085461 -5.7392907334
140 2 -16.8307776442 -20.5786771495 -5.7392907334
141 2 -14.4981704156 -19.2319457087 -5.7392907334
142 2 -18.5991929349 -20.7018512036 -3.4435744125
143 2 -16.0532419099 -21.9254085461 -12.6264395584
144 2 -13.7206346558 -20.5786771495 -12.6264395584
145 2 -17.0441214406 -20.4555030512 -1.1478580916
146 2 -19.3767286692 -19.1087716105 -1.1478580916
147 2 -17.0441214151 -17.7620402138 -1.1478580916
148 2 -16.0532418844 -19.2319457087 -12.6264395584
149 2 -18.5991929094 -20.4555030512 -8.0350069166
150 2 -16.2665856808 -19.1087716105 -8.0350069166
151 2 -19.5900724401 -18.9855975563 -10.3307232375
152 2 -14.2848266447 -22.0485826444 -10.3307232375
153 2 -17.0441213897 -20.7018512477 -10.3307232375
154 2 -18.5991929349 -17.7620402138 -8.0350069166
155 1 -17.8216572005 -19.1087716105 7.1831515943
156 1 -17.821657175 -22.0485826444 8.8868623766
157 1 -17.8216572005 -19.1087716105 11.1825786975
158 1 -15.2757061245 -20.5786771495 9.4788677775
159 1 -15.2757061245 -20.5786771495 13.4782948807
160 1 -17.821657175 -22.0485826444 1.9997135516
161 1 -17.8216572005 -19.1087716105 0.2960027693
162 1 -15.2757061245 -20.5786771495 2.5917189525
163 1 -17.8216572005 -19.1087716105 4.2954298725
164 1 -15.2757061245 -20.5786771495 6.5911460557
165 1 -17.821657175 -22.0485826444 4.8874352734
166 2 -16.0532419099 -18.9855975563 10.3307232375
167 2 -16.2665856553 -22.0485826444 10.3307232375
168 2 -14.4981703901 -21.9254085461 8.0350069166
169 2 -16.8307776442 -20.5786771495 8.0350069166
170 2 -14.4981704156 -19.2319457087 8.0350069166
171 2 -18.5991929349 -20.7018512036 10.3307232375
172 2 -16.0532419099 -21.9254085461 1.1478580916
173 2 -13.7206346558 -20.5786771495 1.1478580916
174 2 -17.0441214406 -20.4555030512 12.6264395584
175 2 -17.0441214151 -17.7620402138 12.6264395584
176 2 -16.0532418844 -19.2319457087 1.1478580916
177 2 -18.5991929094 -20.4555030512 5.7392907334
178 2 -16.2665856808 -19.1087716105 5.7392907334
179 2 -19.5900724401 -18.9855975563 3.4435744125
180 2 -14.2848266447 -22.0485826444 3.4435744125
181 2 -17.0441213897 -20.7018512477 3.4435744125
182 2 -18.5991929349 -17.7620402138 5.7392907334
183 1 -17.8216572005 -19.1087716105 14.0703004193
184 2 -13.7206346558 -20.5786771495 14.9221557416
185 2 -16.0532418844 -19.2319457087 14.9221557416
186 1 -20.3676082255 -14.6990550816 -16.3660166025
187 1 -17.8216571495 -16.1689606206 -14.0703004193
188 2 -18.5991929349 -14.5758810274 -17.2178720625
189 2 -17.0441214406 -14.8222291798 -19.5135883834
190 2 -19.5900724656 -16.0457865223 -14.9221557416
191 2 -19.5900724401 -13.3523236849 -14.9221557416
192 1 -20.3676082255 -14.6990550816 -6.5911460557
193 1 -20.3676082 -17.6388661155 -4.8874352734
194 1 -20.3676082255 -14.6990550816 -2.5917189525
195 1 -17.8216571495 -16.1689606206 -4.2954298725
196 1 -20.3676082 -17.6388661155 -1.9997135516
197 1 -17.8216571495 -16.1689606206 -0.2960027693
198 1 -20.3676082 -17.6388661155 -11.7745840984
199 1 -20.3676082255 -14.6990550816 -13.4782948807
200 1 -17.8216571495 -16.1689606206 -11.1825786975
201 1 -20.3676082255 -14.6990550816 -9.4788677775
202 1 -17.8216571495 -16.1689606206 -7.1831515943
203 1 -20.3676082 -17.6388661155 -8.8868623766
204 2 -18.5991929349 -14.5758810274 -3.4435744125
205 2 -18.8125366803 -17.6388661155 -3.4435744125
206 2 -17.0441214151 -17.5156920173 -5.7392907334
207 2 -19.3767286692 -16.1689606206 -5.7392907334
208 2 -17.0441214406 -14.8222291798 -5.7392907334
209 2 -21.1451439599 -16.2921346748 -3.4435744125
210 2 -18.5991929349 -17.5156920173 -12.6264395584
211 2 -16.2665856808 -16.1689606206 -12.6264395584
212 2 -19.5900724656 -16.0457865223 -1.1478580916
213 2 -21.9226796942 -14.6990550816 -1.1478580916
214 2 -19.5900724401 -13.3523236849 -1.1478580916
215 2 -18.5991929094 -14.8222291798 -12.6264395584
216 2 -21.1451439344 -16.0457865223 -8.0350069166
217 2 -18.8125367058 -14.6990550816 -8.0350069166
218 2 -22.1360234651 -14.5758810274 -10.3307232375
219 2 -16.8307776697 -17.6388661155 -10.3307232375
220 2 -19.5900724147 -16.2921347189 -10.3307232375
221 2 -21.1451439599 -13.3523236849 -8.0350069166
222 1 -20.3676082255 -14.6990550816 7.1831515943
223 1 -20.3676082 -17.6388661155 8.8868623766
224 1 -20.3676082255 -14.6990550816 11.1825786975
225 1 -17.8216571495 -16.1689606206 9.4788677775
226 1 -20.3676082 -17.6388661155 11.7745840984
227 1 -17.8216571495 -16.1689606206 13.4782948807
228 1 -20.3676082 -17.6388661155 1.9997135516
229 1 -20.3676082255 -14.6990550816 0.2960027693
230 1 -17.8216571495 -16.1689606206 2.5917189525
231 1 -20.3676082255 -14.6990550816 4.2954298725
232 1 -17.8216571495 -16.1689606206 6.5911460557
233 1 -20.3676082 -17.6388661155 4.8874352734
234 2 -18.5991929349 -14.5758810274 10.3307232375
235 2 -18.8125366803 -17.6388661155 10.3307232375
236 2 -17.0441214151 -17.5156920173 8.0350069166
237 2 -19.3767286692 -16.1689606206 8.0350069166
238 2 -17.0441214406 -14.8222291798 8.0350069166
239 2 -21.1451439599 -16.2921346748 10.3307232375
240 2 -18.5991929349 -17.5156920173 1.1478580916
241 2 -16.2665856808 -16.1689606206 1.1478580916
242 2 -19.5900724656 -16.0457865223 12.6264395584
243 2 -21.9226796942 -14.6990550816 12.6264395584
244 2 -19.5900724401 -13.3523236849 12.6264395584
245 2 -18.5991929094 -14.8222291798 1.1478580916
246 2 -21.1451439344 -16.0457865223 5.7392907334
247 2 -18.8125367058 -14.6990550816 5.7392907334
248 2 -22.1360234651 -14.5758810274 3.4435744125
249 2 -16.8307776697 -17.6388661155 3.4435744125
250 2 -19.5900724147 -16.2921347189 3.4435744125
251 2 -21.1451439599 -13.3523236849 5.7392907334
252 1 -20.3676082255 -14.6990550816 14.0703004193
253 1 -17.8216571495 -16.1689606206 16.3660166025
254 2 -18.5991929349 -17.5156920173 14.9221557416
255 2 -16.2665856808 -16.1689606206 14.9221557416
256 2 -18.5991929094 -14.8222291798 14.9221557416
257 2 -16.8307776697 -17.6388661155 17.2178720625
258 1 -22.9135592505 -10.2893385527 -16.3660166025
259 1 -20.3676081745 -11.7592440917 -18.0697275225
260 1 -20.3676081745 -11.7592440917 -14.0703004193
261 2 -21.1451439599 -10.1661644985 -17.2178720625
262 2 -19.5900724656 -10.412512651 -19.5135883834
263 2 -22.1360234906 -11.6360699935 -14.9221557416
264 2 -22.1360234651 -8.942607156 -14.9221557416
265 1 -22.9135592505 -10.2893385527 -6.5911460557
266 1 -22.913559225 -13.2291495866 -4.8874352734
267 1 -22.9135592505 -10.2893385527 -2.5917189525
268 1 -20.3676081745 -11.7592440917 -4.2954298725
269 1 -22.913559225 -13.2291495866 -1.9997135516
270 1 -20.3676081745 -11.7592440917 -0.2960027693
271 1 -22.913559225 -13.2291495866 -11.7745840984
272 1 -22.9135592505 -10.2893385527 -13.4782948807
273 1 -20.3676081745 -11.7592440917 -11.1825786975
274 1 -22.9135592505 -10.2893385527 -9.4788677775
275 1 -20.3676081745 -11.7592440917 -7.1831515943
276 1 -22.913559225 -13.2291495866 -8.8868623766
277 2 -21.1451439599 -10.1661644985 -3.4435744125
278 2 -21.3584877053 -13.2291495866 -3.4435744125
279 2 -19.5900724401 -13.1059754884 -5.7392907334
280 2 -21.9226796942 -11.7592440917 -5.7392907334
281 2 -19.5900724656 -10.412512651 -5.7392907334
282 2 -23.6910949849 -11.8824181459 -3.4435744125
283 2 -21.1451439599 -13.1059754884 -12.6264395584
284 2 -18.8125367058 -11.7592440917 -12.6264395584
285 2 -22.1360234906 -11.6360699935 -1.1478580916
286 2 -24.4686307192 -10.2893385527 -1.1478580916
287 2 -22.1360234651 -8.942607156 -1.1478580916
288 2 -21.1451439344 -10.412512651 -12.6264395584
289 2 -23.6910949594 -11.6360699935 -8.0350069166
290 2 -21.3584877308 -10.2893385527 -8.0350069166
291 2 -24.6819744901 -10.1661644985 -10.3307232375
292 2 -19.3767286947 -13.2291495866 -10.3307232375
293 2 -22.1360234397 -11.88241819 -10.3307232375
294 2 -23.6910949849 -8.942607156 -8.0350069166
295 1 -22.9135592505 -10.2893385527 7.1831515943
296 1 -22.913559225 -13.2291495866 8.8868623766
297 1 -22.9135592505 -10.2893385527 11.1825786975
298 1 -20.3676081745 -11.7592440917 9.4788677775
299 1 -22.913559225 -13.2291495866 11.7745840984
300 1 -20.3676081745 -11.7592440917 13.4782948807
301 1 -22.913559225 -13.2291495866 1.9997135516
302 1 -22.9135592505 -10.2893385527 0.2960027693
303 1 -20.3676081745 -11.7592440917 2.5917189525
304 1 -22.9135592505 -10.2893385527 4.2954298725
305 1 -20.3676081745 -11.7592440917 6.5911460557
306 1 -22.913559225 -13.2291495866 4.8874352734
307 2 -21.1451439599 -10.1661644985 10.3307232375
308 2 -21.3584877053 -13.2291495866 10.3307232375
309 2 -19.5900724401 -13.1059754884 8.0350069166
310 2 -21.9226796942 -11.7592440917 8.0350069166
311 2 -19.5900724656 -10.412512651 8.0350069166
312 2 -23.6910949849 -11.8824181459 10.3307232375
313 2 -21.1451439599 -13.1059754884 1.1478580916
314 2 -18.8125367058 -11.7592440917 1.1478580916
315 2 -22.1360234906 -11.6360699935 12.6264395584
316 2 -24.4686307192 -10.2893385527 12.6264395584
317 2 -22.1360234651 -8.942607156 12.6264395584
318 2 -21.1451439344 -10.412512651 1.1478580916
319 2 -23.6910949594 -11.6360699935 5.7392907334
320 2 -21.3584877308 -10.2893385527 5.7392907334
321 2 -24.6819744901 -10.1661644985 3.4435744125
322 2 -19.3767286947 -13.2291495866 3.4435744125
323 2 -22.1360234397 -11.88241819 3.4435744125
324 2 -23.6910949849 -8.942607156 5.7392907334
325 1 -22.9135592505 -10.2893385527 14.0703004193
326 1 -20.3676081745 -11.7592440917 16.3660166025
327 2 -21.1451439599 -13.1059754884 14.9221557416
328 2 -18.8125367058 -11.7592440917 14.9221557416
329 2 -21.1451439344 -10.412512651 14.9221557416
330 2 -19.3767286947 -13.2291495866 17.2178720625
331 1 -22.9135591995 -7.3495275628 -14.0703004193
332 2 -23.6910949849 -5.7564479696 -17.2178720625
333 2 -24.6819745156 -7.2263534646 -14.9221557416
334 2 -24.6819744901 -4.5328906271 -14.9221557416
335 1 -25.4595102755 -5.8796220238 -6.5911460557
336 1 -25.45951025 -8.8194330578 -4.8874352734
337 1 -25.4595102755 -5.8796220238 -2.5917189525
338 1 -22.9135591995 -7.3495275628 -4.2954298725
339 1 -25.45951025 -8.8194330578 -1.9997135516
340 1 -22.9135591995 -7.3495275628 -0.2960027693
341 1 -25.45951025 -8.8194330578 -11.7745840984
342 1 -25.4595102755 -5.8796220238 -13.4782948807
343 1 -22.9135591995 -7.3495275628 -11.1825786975
344 1 -25.4595102755 -5.8796220238 -9.4788677775
345 1 -22.9135591995 -7.3495275628 -7.1831515943
346 1 -25.45951025 -8.8194330578 -8.8868623766
347 2 -23.6910949849 -5.7564479696 -3.4435744125
348 2 -23.9044387303 -8.8194330578 -3.4435744125
349 2 -22.1360234651 -8.6962589595 -5.7392907334
350 2 -24.4686307192 -7.3495275628 -5.7392907334
351 2 -22.1360234906 -6.0027961221 -5.7392907334
352 2 -26.2370460099 -7.472701617 -3.4435744125
353 2 -23.6910949849 -8.6962589595 -12.6264395584
354 2 -21.3584877308 -7.3495275628 -12.6264395584
355 2 -24.6819745156 -7.2263534646 -1.1478580916
356 2 -27.0145817442 -5.8796220238 -1.1478580916
357 2 -24.6819744901 -4.5328906271 -1.1478580916
358 2 -23.6910949594 -6.0027961221 -12.6264395584
359 2 -26.2370459844 -7.2263534646 -8.0350069166
360 2 -23.9044387558 -5.8796220238 -8.0350069166
361 2 -27.2279255151 -5.7564479696 -10.3307232375
362 2 -21.9226797197 -8.8194330578 -10.3307232375
363 2 -24.6819744647 -7.4727016611 -10.3307232375
364 2 -26.2370460099 -4.5328906271 -8.0350069166
365 1 -25.4595102755 -5.8796220238 7.1831515943
366 1 -25.45951025 -8.8194330578 8.8868623766
367 1 -25.4595102755 -5.8796220238 11.1825786975
368 1 -22.9135591995 -7.3495275628 9.4788677775
369 1 -25.45951025 -8.8194330578 11.7745840984
370 1 -22.9135591995 -7.3495275628 13.4782948807
371 1 -25.45951025 -8.8194330578 1.9997135516
372 1 -25.4595102755 -5.8796220238 0.2960027693
373 1 -22.9135591995 -7.3495275628 2.5917189525
374 1 -25.4595102755 -5.8796220238 4.2954298725
375 1 -22.9135591995 -7.3495275628 6.5911460557
376 1 -25.45951025 -8.8194330578 4.8874352734
377 2 -23.6910949849 -5.7564479696 10.3307232375
378 2 -23.9044387303 -8.8194330578 10.3307232375
379 2 -22.1360234651 -8.6962589595 8.0350069166
380 2 -24.4686307192 -7.3495275628 8.0350069166
381 2 -22.1360234906 -6.0027961221 8.0350069166
382 2 -26.2370460099 -7.472701617 10.3307232375
383 2 -23.6910949849 -8.6962589595 1.1478580916
384 2 -21.3584877308 -7.3495275628 1.1478580916
385 2 -24.6819745156 -7.2263534646 12.6264395584
386 2 -24.6819744901 -4.5328906271 12.6264395584
387 2 -23.6910949594 -6.0027961221 1.1478580916
388 2 -26.2370459844 -7.2263534646 5.7392907334
389 2 -23.9044387558 -5.8796220238 5.7392907334
390 2 -27.2279255151 -5.7564479696 3.4435744125
391 2 -21.9226797197 -8.8194330578 3.4435744125
392 2 -24.6819744647 -7.4727016611 3.4435744125
393 2 -26.2370460099 -4.5328906271 5.7392907334
394 1 -25.4595102755 -5.8796220238 14.0703004193
395 1 -22.9135591995 -7.3495275628 16.3660166025
396 2 -23.6910949849 -8.6962589595 14.9221557416
397 2 -21.3584877308 -7.3495275628 14.9221557416
398 2 -23.6910949594 -6.0027961221 14.9221557416
399 2 -21.9226797197 -8.8194330578 17.2178720625
400 1 -25.4595102245 -2.939811034 -14.0703004193
401 1 -28.0054613005 -1.4699054949 -6.5911460557
402 1 -28.005461275 -4.4097165289 -4.8874352734
403 1 -28.0054613005 -1.4699054949 -2.5917189525
404 1 -25.4595102245 -2.939811034 -4.2954298725
405 1 -28.005461275 -4.4097165289 -1.9997135516
406 1 -25.4595102245 -2.939811034 -0.2960027693
407 1 -25.4595102245 -2.939811034 -11.1825786975
408 1 -28.0054613005 -1.4699054949 -9.4788677775
409 1 -25.4595102245 -2.939811034 -7.1831515943
410 1 -28.005461275 -4.4097165289 -8.8868623766
411 2 -26.2370460099 -1.3467314408 -3.4435744125
412 2 -26.4503897553 -4.4097165289 -3.4435744125
413 2 -24.6819744901 -4.2865424306 -5.7392907334
414 2 -27.0145817442 -2.939811034 -5.7392907334
415 2 -24.6819745156 -1.5930795932 -5.7392907334
416 2 -28.7829970349 -3.0629850881 -3.4435744125
417 2 -26.2370460099 -4.2865424306 -12.6264395584
418 2 -23.9044387558 -2.939811034 -12.6264395584
419 2 -27.2279255406 -2.8166369357 -1.1478580916
420 2 -29.5605327692 -1.4699054949 -1.1478580916
421 2 -27.2279255151 -0.1231740983 -1.1478580916
422 2 -26.2370459844 -1.5930795932 -12.6264395584
423 2 -26.4503897808 -1.4699054949 -8.0350069166
424 2 -24.4686307447 -4.4097165289 -10.3307232375
425 2 -27.2279254897 -3.0629851322 -10.3307232375
426 2 -28.7829970349 -0.1231740983 -8.0350069166
427 1 -28.0054613005 -1.4699054949 7.1831515943
428 1 -28.005461275 -4.4097165289 8.8868623766
429 1 -25.4595102245 -2.939811034 9.4788677775
430 1 -25.4595102245 -2.939811034 13.4782948807
431 1 -28.005461275 -4.4097165289 1.9997135516
432 1 -28.0054613005 -1.4699054949 0.2960027693
433 1 -25.4595102245 -2.939811034 2.5917189525
434 1 -28.0054613005 -1.4699054949 4.2954298725
435 1 -25.4595102245 -2.939811034 6.5911460557
436 1 -28.005461275 -4.4097165289 4.8874352734
437 2 -26.2370460099 -1.3467314408 10.3307232375
438 2 -26.4503897553 -4.4097165289 10.3307232375
439 2 -24.6819744901 -4.2865424306 8.0350069166
440 2 -27.0145817442 -2.939811034 8.0350069166
441 2 -24.6819745156 -1.5930795932 8.0350069166
442 2 -26.2370460099 -4.2865424306 1.1478580916
443 2 -23.9044387558 -2.939811034 1.1478580916
444 2 -26.2370459844 -1.5930795932 1.1478580916
445 2 -28.7829970094 -2.8166369357 5.7392907334
446 2 -26.4503897808 -1.4699054949 5.7392907334
447 2 -24.4686307447 -4.4097165289 3.4435744125
448 2 -27.2279254897 -3.0629851322 3.4435744125
449 2 -28.7829970349 -0.1231740983 5.7392907334
450 2 -23.9044387558 -2.939811034 14.9221557416
451 1 -28.0054612495 1.4699054949 -4.2954298725
452 1 -28.0054612495 1.4699054949 -0.2960027693
453 1 -28.0054612495 1.4699054949 -7.1831515943
454 2 -28.7829970349 3.0629850881 -3.4435744125
455 2 -28.9963407803 0.0 -3.4435744125
456 2 -27.2279255151 0.1231740983 -5.7392907334
457 2 -27.2279255406 2.8166369357 -5.7392907334
458 2 -26.4503897808 1.4699054949 -12.6264395584
459 2 -29.7738765656 1.5930795932 -1.1478580916
460 2 -27.0145817697 0.0 -10.3307232375
461 1 -28.0054612495 1.4699054949 9.4788677775
462 1 -28.0054612495 1.4699054949 2.5917189525
463 1 -28.0054612495 1.4699054949 6.5911460557
464 2 -27.2279255151 0.1231740983 8.0350069166
465 2 -27.2279255406 2.8166369357 8.0350069166
466 2 -28.7829970349 0.1231740983 1.1478580916
467 2 -26.4503897808 1.4699054949 1.1478580916
468 2 -28.7829970094 2.8166369357 1.1478580916
469 2 -28.9963408058 2.939811034 5.7392907334
470 2 -27.0145817697 0.0 3.4435744125
471 2 -28.9963408058 5.8796220238 1.1478580916
472 1 -7.6378531005 -27.9282046682 -6.5911460557
473 1 -7.6378531005 -27.9282046682 -2.5917189525
474 1 -5.0919020245 -29.3981102072 -0.2960027693
475 2 -5.8694378099 -27.8050306141 -3.4435744125
476 2 -4.3143663156 -28.0513787665 -5.7392907334
477 2 -9.1929245692 -27.9282046682 -1.1478580916
478 2 -6.8603173151 -26.5814732716 -1.1478580916
479 2 -6.0827815808 -27.9282046682 -8.0350069166
480 2 -8.4153888349 -26.5814732716 -8.0350069166
481 1 -7.6378531005 -27.9282046682 7.1831515943
482 1 -7.6378531005 -27.9282046682 0.2960027693
483 1 -5.0919020245 -29.3981102072 2.5917189525
484 1 -7.6378531005 -27.9282046682 4.2954298725
485 2 -4.3143663156 -28.0513787665 8.0350069166
486 2 -3.5368305558 -29.3981102072 1.1478580916
487 2 -5.8694377844 -28.0513787665 1.1478580916
488 2 -6.0827815808 -27.9282046682 5.7392907334
489 2 -9.4062683401 -27.8050306141 3.4435744125
490 2 -8.4153888349 -26.5814732716 5.7392907334
491 1 -7.6378530495 -24.9883936784 -14.0703004193
492 2 -9.4062683401 -22.1717567427 -14.9221557416
493 1 -10.1838041255 -23.5184881393 -6.5911460557
494 1 -10.1838041 -26.4582991733 -4.8874352734
495 1 -10.1838041255 -23.5184881393 -2.5917189525
496 1 -7.6378530495 -24.9883936784 -4.2954298725
497 1 -10.1838041 -26.4582991733 -1.9997135516
498 1 -7.6378530495 -24.9883936784 -0.2960027693
499 1 -10.1838041255 -23.5184881393 -13.4782948807
500 1 -7.6378530495 -24.9883936784 -11.1825786975
501 1 -10.1838041255 -23.5184881393 -9.4788677775
502 1 -7.6378530495 -24.9883936784 -7.1831515943
503 1 -10.1838041 -26.4582991733 -8.8868623766
504 2 -8.4153888349 -23.3953140852 -3.4435744125
505 2 -8.6287325803 -26.4582991733 -3.4435744125
506 2 -6.8603173151 -26.335125075 -5.7392907334
507 2 -9.1929245692 -24.9883936784 -5.7392907334
508 2 -6.8603173406 -23.6416622376 -5.7392907334
509 2 -10.9613398599 -25.1115677325 -3.4435744125
510 2 -6.0827815808 -24.9883936784 -12.6264395584
511 2 -9.4062683656 -24.8652195801 -1.1478580916
512 2 -11.7388755942 -23.5184881393 -1.1478580916
513 2 -9.4062683401 -22.1717567427 -1.1478580916
514 2 -8.4153888094 -23.6416622376 -12.6264395584
515 2 -10.9613398344 -24.8652195801 -8.0350069166
516 2 -8.6287326058 -23.5184881393 -8.0350069166
517 2 -11.9522193651 -23.3953140852 -10.3307232375
518 2 -6.6469735697 -26.4582991733 -10.3307232375
519 2 -9.4062683147 -25.1115677766 -10.3307232375
520 2 -10.9613398599 -22.1717567427 -8.0350069166
521 1 -10.1838041255 -23.5184881393 7.1831515943
522 1 -10.1838041 -26.4582991733 8.8868623766
523 1 -10.1838041255 -23.5184881393 11.1825786975
524 1 -7.6378530495 -24.9883936784 9.4788677775
525 1 -7.6378530495 -24.9883936784 13.4782948807
526 1 -10.1838041 -26.4582991733 1.9997135516
527 1 -10.1838041255 -23.5184881393 0.2960027693
528 1 -7.6378530495 -24.9883936784 2.5917189525
529 1 -10.1838041255 -23.5184881393 4.2954298725
530 1 -7.6378530495 -24.9883936784 6.5911460557
531 1 -10.1838041 -26.4582991733 4.8874352734
532 2 -8.4153888349 -23.3953140852 10.3307232375
533 2 -8.6287325803 -26.4582991733 10.3307232375
534 2 -6.8603173151 -26.335125075 8.0350069166
535 2 -9.1929245692 -24.9883936784 8.0350069166
536 2 -6.8603173406 -23.6416622376 8.0350069166
537 2 -10.9613398599 -25.1115677325 10.3307232375
538 2 -8.4153888349 -26.335125075 1.1478580916
539 2 -6.0827815808 -24.9883936784 1.1478580916
540 2 -9.4062683656 -24.8652195801 12.6264395584
541 2 -11.7388755942 -23.5184881393 12.6264395584
542 2 -9.4062683401 -22.1717567427 12.6264395584
543 2 -8.4153888094 -23.6416622376 1.1478580916
544 2 -10.9613398344 -24.8652195801 5.7392907334
545 2 -8.6287326058 -23.5184881393 5.7392907334
546 2 -11.9522193651 -23.3953140852 3.4435744125
547 2 -6.6469735697 -26.4582991733 3.4435744125
548 2 -9.4062683147 -25.1115677766 3.4435744125
549 2 -10.9613398599 -22.1717567427 5.7392907334
550 1 -10.1838041255 -23.5184881393 14.0703004193
551 2 -6.0827815808 -24.9883936784 14.9221557416
552 2 -8.4153888094 -23.6416622376 14.9221557416
553 1 -12.7297551505 -19.1087716105 -16.3660166025
554 1 -10.1838040745 -20.5786771495 -18.0697275225
555 1 -12.729755125 -22.0485826444 -15.7740112016
556 1 -10.1838040745 -20.5786771495 -14.0703004193
557 2 -10.9613398599 -18.9855975563 -17.2178720625
558 2 -9.4062683656 -19.2319457087 -19.5135883834
559 2 -11.9522193906 -20.4555030512 -14.9221557416
560 2 -14.2848266192 -19.1087716105 -14.9221557416
561 2 -11.9522193651 -17.7620402138 -14.9221557416
562 1 -12.7297551505 -19.1087716105 -6.5911460557
563 1 -12.729755125 -22.0485826444 -4.8874352734
564 1 -12.7297551505 -19.1087716105 -2.5917189525
565 1 -10.1838040745 -20.5786771495 -4.2954298725
566 1 -12.729755125 -22.0485826444 -1.9997135516
567 1 -10.1838040745 -20.5786771495 -0.2960027693
568 1 -12.729755125 -22.0485826444 -11.7745840984
569 1 -12.7297551505 -19.1087716105 -13.4782948807
570 1 -10.1838040745 -20.5786771495 -11.1825786975
571 1 -12.7297551505 -19.1087716105 -9.4788677775
572 1 -10.1838040745 -20.5786771495 -7.1831515943
573 1 -12.729755125 -22.0485826444 -8.8868623766
574 2 -10.9613398599 -18.9855975563 -3.4435744125
575 2 -11.1746836053 -22.0485826444 -3.4435744125
576 2 -9.4062683401 -21.9254085461 -5.7392907334
577 2 -11.7388755942 -20.5786771495 -5.7392907334
578 2 -9.4062683656 -19.2319457087 -5.7392907334
579 2 -13.5072908849 -20.7018512036 -3.4435744125
580 2 -10.9613398599 -21.9254085461 -12.6264395584
581 2 -8.6287326058 -20.5786771495 -12.6264395584
582 2 -11.9522193906 -20.4555030512 -1.1478580916
583 2 -14.2848266192 -19.1087716105 -1.1478580916
584 2 -11.9522193651 -17.7620402138 -1.1478580916
585 2 -10.9613398344 -19.2319457087 -12.6264395584
586 2 -13.5072908594 -20.4555030512 -8.0350069166
587 2 -11.1746836308 -19.1087716105 -8.0350069166
588 2 -14.4981703901 -18.9855975563 -10.3307232375
589 2 -9.1929245947 -22.0485826444 -10.3307232375
590 2 -11.9522193397 -20.7018512477 -10.3307232375
591 2 -13.5072908849 -17.7620402138 -8.0350069166
592 1 -12.7297551505 -19.1087716105 7.1831515943
593 1 -12.729755125 -22.0485826444 8.8868623766
594 1 -12.7297551505 -19.1087716105 11.1825786975
595 1 -10.1838040745 -20.5786771495 9.4788677775
596 1 -12.729755125 -22.0485826444 11.7745840984
597 1 -10.1838040745 -20.5786771495 13.4782948807
598 1 -12.729755125 -22.0485826444 1.9997135516
599 1 -12.7297551505 -19.1087716105 0.2960027693
600 1 -10.1838040745 -20.5786771495 2.5917189525
601 1 -12.7297551505 -19.1087716105 4.2954298725
602 1 -10.1838040745 -20.5786771495 6.5911460557
603 1 -12.729755125 -22.0485826444 4.8874352734
604 2 -10.9613398599 -18.9855975563 10.3307232375
605 2 -11.1746836053 -22.0485826444 10.3307232375
606 2 -9.4062683401 -21.9254085461 8.0350069166
607 2 -11.7388755942 -20.5786771495 8.0350069166
608 2 -9.4062683656 -19.2319457087 8.0350069166