# LAMMPS data file written by Ovito 3.10.6

374 atoms
2 atom types

-10.0 10.0 xlo xhi
-10.0 10.0 ylo yhi
-10.0 10.0 zlo zhi

Masses

1 55.845  # Fe3+
2 15.9994  # O2-

Atoms  # atomic

1 1 -5.0919020755 -5.8796220238 -2.5917189525
2 1 -2.5459509995 -7.3495275628 -4.2954298725
3 1 -2.5459509995 -7.3495275628 -0.2960027693
4 2 -3.3234867849 -5.7564479696 -3.4435744125
5 2 -1.7684152906 -6.0027961221 -5.7392907334
6 2 -4.3143663156 -7.2263534646 -1.1478580916
7 2 -6.6469735442 -5.8796220238 -1.1478580916
8 2 -4.3143662901 -4.5328906271 -1.1478580916
9 1 -5.0919020755 -5.8796220238 0.2960027693
10 1 -2.5459509995 -7.3495275628 2.5917189525
11 1 -5.0919020755 -5.8796220238 4.2954298725
12 2 -3.3234867849 -8.6962589595 1.1478580916
13 2 -0.9908795308 -7.3495275628 1.1478580916
14 2 -3.3234867594 -6.0027961221 1.1478580916
15 2 -3.5368305558 -5.8796220238 5.7392907334
16 2 -6.8603173151 -5.7564479696 3.4435744125
17 2 -1.5550715197 -8.8194330578 3.4435744125
18 2 -4.3143662647 -7.4727016611 3.4435744125
19 2 -5.8694378099 -4.5328906271 5.7392907334
20 1 -7.6378531005 -1.4699054949 -2.5917189525
21 1 -5.0919020245 -2.939811034 -4.2954298725
22 1 -7.637853075 -4.4097165289 -1.9997135516
23 1 -5.0919020245 -2.939811034 -0.2960027693
24 1 -5.0919020245 -2.939811034 -7.1831515943
25 2 -5.8694378099 -1.3467314408 -3.4435744125
26 2 -6.0827815553 -4.4097165289 -3.4435744125
27 2 -4.3143662901 -4.2865424306 -5.7392907334
28 2 -6.6469735442 -2.939811034 -5.7392907334
29 2 -4.3143663156 -1.5930795932 -5.7392907334
30 2 -8.4153888349 -3.0629850881 -3.4435744125
31 2 -6.8603173406 -2.8166369357 -1.1478580916
32 2 -9.1929245692 -1.4699054949 -1.1478580916
33 2 -6.8603173151 -0.1231740983 -1.1478580916
34 1 -7.637853075 -4.4097165289 1.9997135516
35 1 -7.6378531005 -1.4699054949 0.2960027693
36 1 -5.0919020245 -2.939811034 2.5917189525
37 1 -7.6378531005 -1.4699054949 4.2954298725
38 1 -5.0919020245 -2.939811034 6.5911460557
39 2 -4.3143663156 -1.5930795932 8.0350069166
40 2 -5.8694378099 -4.2865424306 1.1478580916
41 2 -3.5368305558 -2.939811034 1.1478580916
42 2 -5.8694377844 -1.5930795932 1.1478580916
43 2 -6.0827815808 -1.4699054949 5.7392907334
44 2 -4.1010225447 -4.4097165289 3.4435744125
45 2 -6.8603172897 -3.0629851322 3.4435744125
46 1 -7.6378530495 1.4699054949 -4.2954298725
47 1 -7.6378530495 1.4699054949 -0.2960027693
48 2 -8.4153888349 3.0629850881 -3.4435744125
49 2 -8.6287325803 0.0 -3.4435744125
50 2 -6.8603173151 0.1231740983 -5.7392907334
51 2 -6.8603173406 2.8166369357 -5.7392907334
52 2 -9.4062683656 1.5930795932 -1.1478580916
53 1 -7.6378530495 1.4699054949 2.5917189525
54 2 -8.4153888349 0.1231740983 1.1478580916
55 2 -6.0827815808 1.4699054949 1.1478580916
56 2 -8.4153888094 2.8166369357 1.1478580916
57 2 -6.6469735697 0.0 3.4435744125
58 1 -2.5459511529e-08 -5.8796220238 -6.5911460557
59 1 -2.5459511529e-08 -5.8796220238 -2.5917189525
60 1 2.5459510505 -7.3495275628 -4.2954298725
61 1 -1.7763568394e-15 -8.8194330578 -1.9997135516
62 1 2.5459510505 -7.3495275628 -0.2960027693
63 2 1.7684152651 -5.7564479696 -3.4435744125
64 2 1.5550715197 -8.8194330578 -3.4435744125
65 2 0.9908795308 -7.3495275628 -5.7392907334
66 2 3.3234867594 -6.0027961221 -5.7392907334
67 2 -0.7775357599 -7.472701617 -3.4435744125
68 2 0.7775357344 -7.2263534646 -1.1478580916
69 2 -1.5550714942 -5.8796220238 -1.1478580916
70 2 0.7775357599 -4.5328906271 -1.1478580916
71 2 -0.7775357599 -4.5328906271 -8.0350069166
72 1 -2.5459511529e-08 -5.8796220238 7.1831515943
73 1 -1.7763568394e-15 -8.8194330578 1.9997135516
74 1 -2.5459511529e-08 -5.8796220238 0.2960027693
75 1 2.5459510505 -7.3495275628 2.5917189525
76 1 -2.5459511529e-08 -5.8796220238 4.2954298725
77 2 1.7684152651 -8.6962589595 1.1478580916
78 2 4.1010225192 -7.3495275628 1.1478580916
79 2 1.7684152906 -6.0027961221 1.1478580916
80 2 -0.7775357344 -7.2263534646 5.7392907334
81 2 1.5550714942 -5.8796220238 5.7392907334
82 2 -1.7684152651 -5.7564479696 3.4435744125
83 2 0.7775357853 -7.4727016611 3.4435744125
84 2 -0.7775357599 -4.5328906271 5.7392907334
85 1 -2.5459510505 -1.4699054949 -6.5911460557
86 1 -2.545951025 -4.4097165289 -4.8874352734
87 1 -2.5459510505 -1.4699054949 -2.5917189525
88 1 2.5459509612e-08 -2.939811034 -4.2954298725
89 1 -2.545951025 -4.4097165289 -1.9997135516
90 1 2.5459509612e-08 -2.939811034 -0.2960027693
91 1 -2.5459510505 -1.4699054949 -9.4788677775
92 1 2.5459509612e-08 -2.939811034 -7.1831515943
93 2 -0.7775357599 -1.3467314408 -3.4435744125
94 2 -0.9908795053 -4.4097165289 -3.4435744125
95 2 0.7775357599 -4.2865424306 -5.7392907334
96 2 -1.5550714942 -2.939811034 -5.7392907334
97 2 0.7775357344 -1.5930795932 -5.7392907334
98 2 -3.3234867849 -3.0629850881 -3.4435744125
99 2 -1.7684152906 -2.8166369357 -1.1478580916
100 2 -4.1010225192 -1.4699054949 -1.1478580916
101 2 -1.7684152651 -0.1231740983 -1.1478580916
102 2 -3.3234867594 -2.8166369357 -8.0350069166
103 2 -0.9908795308 -1.4699054949 -8.0350069166
104 2 -3.3234867849 -0.1231740983 -8.0350069166
105 1 -2.5459510505 -1.4699054949 7.1831515943
106 1 2.5459509612e-08 -2.939811034 9.4788677775
107 1 -2.545951025 -4.4097165289 1.9997135516
108 1 -2.5459510505 -1.4699054949 0.2960027693
109 1 2.5459509612e-08 -2.939811034 2.5917189525
110 1 -2.5459510505 -1.4699054949 4.2954298725
111 1 2.5459509612e-08 -2.939811034 6.5911460557
112 1 -2.545951025 -4.4097165289 4.8874352734
113 2 0.7775357599 -4.2865424306 8.0350069166
114 2 -1.5550714942 -2.939811034 8.0350069166
115 2 0.7775357344 -1.5930795932 8.0350069166
116 2 -0.7775357599 -4.2865424306 1.1478580916
117 2 1.5550714942 -2.939811034 1.1478580916
118 2 -0.7775357344 -1.5930795932 1.1478580916
119 2 -3.3234867594 -2.8166369357 5.7392907334
120 2 -0.9908795308 -1.4699054949 5.7392907334
121 2 -4.3143662901 -1.3467314408 3.4435744125
122 2 0.9908795053 -4.4097165289 3.4435744125
123 2 -1.7684152397 -3.0629851322 3.4435744125
124 2 -3.3234867849 -0.1231740983 5.7392907334
125 1 -5.0919020755 2.939811034 -6.5911460557
126 1 -5.09190205 0.0 -4.8874352734
127 1 -5.0919020755 2.939811034 -2.5917189525
128 1 -2.5459509995 1.4699054949 -4.2954298725
129 1 -5.09190205 0.0 -1.9997135516
130 1 -2.5459509995 1.4699054949 -0.2960027693
131 1 -2.5459509995 1.4699054949 -7.1831515943
132 2 -3.3234867849 3.0629850881 -3.4435744125
133 2 -3.5368305303 0.0 -3.4435744125
134 2 -1.7684152651 0.1231740983 -5.7392907334
135 2 -4.1010225192 1.4699054949 -5.7392907334
136 2 -1.7684152906 2.8166369357 -5.7392907334
137 2 -5.8694378099 1.3467314408 -3.4435744125
138 2 -4.3143663156 1.5930795932 -1.1478580916
139 2 -6.6469735442 2.939811034 -1.1478580916
140 2 -4.3143662901 4.2865424306 -1.1478580916
141 2 -3.5368305558 2.939811034 -8.0350069166
142 1 -5.0919020755 2.939811034 7.1831515943
143 1 -2.5459509995 1.4699054949 9.4788677775
144 1 -5.09190205 0.0 1.9997135516
145 1 -5.0919020755 2.939811034 0.2960027693
146 1 -2.5459509995 1.4699054949 2.5917189525
147 1 -5.0919020755 2.939811034 4.2954298725
148 1 -2.5459509995 1.4699054949 6.5911460557
149 1 -5.09190205 0.0 4.8874352734
150 2 -1.7684152651 0.1231740983 8.0350069166
151 2 -4.1010225192 1.4699054949 8.0350069166
152 2 -1.7684152906 2.8166369357 8.0350069166
153 2 -3.3234867849 0.1231740983 1.1478580916
154 2 -0.9908795308 1.4699054949 1.1478580916
155 2 -3.3234867594 2.8166369357 1.1478580916
156 2 -5.8694377844 1.5930795932 5.7392907334
157 2 -3.5368305558 2.939811034 5.7392907334
158 2 -6.8603173151 3.0629850881 3.4435744125
159 2 -1.5550715197 0.0 3.4435744125
160 2 -4.3143662647 1.3467313967 3.4435744125
161 2 -5.8694378099 4.2865424306 5.7392907334
162 1 -5.0919020245 5.8796220238 -4.2954298725
163 1 -7.637853075 4.4097165289 -1.9997135516
164 1 -5.0919020245 5.8796220238 -0.2960027693
165 2 -6.0827815553 4.4097165289 -3.4435744125
166 2 -4.3143662901 4.5328906271 -5.7392907334
167 2 -6.8603173406 6.0027961221 -1.1478580916
168 1 -7.637853075 4.4097165289 1.9997135516
169 1 -5.0919020245 5.8796220238 2.5917189525
170 2 -5.8694378099 4.5328906271 1.1478580916
171 2 -3.5368305558 5.8796220238 1.1478580916
172 2 -5.8694377844 7.2263534646 1.1478580916
173 2 -4.1010225447 4.4097165289 3.4435744125
174 2 -6.8603172897 5.7564479255 3.4435744125
175 1 5.0919020245 -5.8796220238 -2.5917189525
176 2 6.8603173151 -5.7564479696 -3.4435744125
177 2 4.3143662901 -7.472701617 -3.4435744125
178 2 5.8694377844 -7.2263534646 -1.1478580916
179 2 3.5368305558 -5.8796220238 -1.1478580916
180 2 5.8694378099 -4.5328906271 -1.1478580916
181 1 5.0919020245 -5.8796220238 0.2960027693
182 1 5.0919020245 -5.8796220238 4.2954298725
183 2 6.8603173406 -6.0027961221 1.1478580916
184 2 3.3234867849 -5.7564479696 3.4435744125
185 2 4.3143662901 -4.5328906271 5.7392907334
186 1 2.5459509995 -1.4699054949 -6.5911460557
187 1 2.545951025 -4.4097165289 -4.8874352734
188 1 2.5459509995 -1.4699054949 -2.5917189525
189 1 5.0919020755 -2.939811034 -4.2954298725
190 1 2.545951025 -4.4097165289 -1.9997135516
191 1 5.0919020755 -2.939811034 -0.2960027693
192 1 2.5459509995 -1.4699054949 -9.4788677775
193 1 5.0919020755 -2.939811034 -7.1831515943
194 2 4.3143662901 -1.3467314408 -3.4435744125
195 2 4.1010225447 -4.4097165289 -3.4435744125
196 2 5.8694378099 -4.2865424306 -5.7392907334
197 2 3.5368305558 -2.939811034 -5.7392907334
198 2 5.8694377844 -1.5930795932 -5.7392907334
199 2 1.7684152651 -3.0629850881 -3.4435744125
200 2 3.3234867594 -2.8166369357 -1.1478580916
201 2 0.9908795308 -1.4699054949 -1.1478580916
202 2 3.3234867849 -0.1231740983 -1.1478580916
203 2 1.7684152906 -2.8166369357 -8.0350069166
204 2 4.1010225192 -1.4699054949 -8.0350069166
205 2 1.7684152651 -0.1231740983 -8.0350069166
206 1 2.5459509995 -1.4699054949 7.1831515943
207 1 2.545951025 -4.4097165289 1.9997135516
208 1 2.5459509995 -1.4699054949 0.2960027693
209 1 5.0919020755 -2.939811034 2.5917189525
210 1 2.5459509995 -1.4699054949 4.2954298725
211 1 5.0919020755 -2.939811034 6.5911460557
212 1 2.545951025 -4.4097165289 4.8874352734
213 2 3.5368305558 -2.939811034 8.0350069166
214 2 4.3143662901 -4.2865424306 1.1478580916
215 2 6.6469735442 -2.939811034 1.1478580916
216 2 4.3143663156 -1.5930795932 1.1478580916
217 2 1.7684152906 -2.8166369357 5.7392907334
218 2 4.1010225192 -1.4699054949 5.7392907334
219 2 0.7775357599 -1.3467314408 3.4435744125
220 2 6.0827815553 -4.4097165289 3.4435744125
221 2 3.3234868103 -3.0629851322 3.4435744125
222 2 1.7684152651 -0.1231740983 5.7392907334
223 1 -2.5459509752e-08 2.939811034 -6.5911460557
224 1 0.0 0.0 -4.8874352734
225 1 -2.5459509752e-08 2.939811034 -2.5917189525
226 1 2.5459510505 1.4699054949 -4.2954298725
227 1 0.0 0.0 -1.9997135516
228 1 2.5459510505 1.4699054949 -0.2960027693
229 1 -2.5459509752e-08 2.939811034 -9.4788677775
230 1 2.5459510505 1.4699054949 -7.1831515943
231 1 0.0 0.0 -8.8868623766
232 2 1.7684152651 3.0629850881 -3.4435744125
233 2 1.5550715197 0.0 -3.4435744125
234 2 3.3234867849 0.1231740983 -5.7392907334
235 2 0.9908795308 1.4699054949 -5.7392907334
236 2 3.3234867594 2.8166369357 -5.7392907334
237 2 -0.7775357599 1.3467314408 -3.4435744125
238 2 0.7775357344 1.5930795932 -1.1478580916
239 2 -1.5550714942 2.939811034 -1.1478580916
240 2 0.7775357599 4.2865424306 -1.1478580916
241 2 -0.7775357344 1.5930795932 -8.0350069166
242 2 1.5550714942 2.939811034 -8.0350069166
243 2 -0.7775357599 4.2865424306 -8.0350069166
244 1 -2.5459509752e-08 2.939811034 7.1831515943
245 1 0.0 0.0 8.8868623766
246 1 2.5459510505 1.4699054949 9.4788677775
247 1 0.0 0.0 1.9997135516
248 1 -2.5459509752e-08 2.939811034 0.2960027693
249 1 2.5459510505 1.4699054949 2.5917189525
250 1 -2.5459509752e-08 2.939811034 4.2954298725
251 1 2.5459510505 1.4699054949 6.5911460557
252 1 0.0 0.0 4.8874352734
253 2 3.3234867849 0.1231740983 8.0350069166
254 2 0.9908795308 1.4699054949 8.0350069166
255 2 3.3234867594 2.8166369357 8.0350069166
256 2 1.7684152651 0.1231740983 1.1478580916
257 2 4.1010225192 1.4699054949 1.1478580916
258 2 1.7684152906 2.8166369357 1.1478580916
259 2 -0.7775357344 1.5930795932 5.7392907334
260 2 1.5550714942 2.939811034 5.7392907334
261 2 -1.7684152651 3.0629850881 3.4435744125
262 2 3.5368305303 0.0 3.4435744125
263 2 0.7775357853 1.3467313967 3.4435744125
264 2 -0.7775357599 4.2865424306 5.7392907334
265 1 -2.545951025 4.4097165289 -4.8874352734
266 1 -2.5459510505 7.3495275628 -2.5917189525
267 1 2.5459511388e-08 5.8796220238 -4.2954298725
268 1 -2.545951025 4.4097165289 -1.9997135516
269 1 2.5459511388e-08 5.8796220238 -0.2960027693
270 1 2.5459511388e-08 5.8796220238 -7.1831515943
271 2 -0.7775357599 7.472701617 -3.4435744125
272 2 -0.9908795053 4.4097165289 -3.4435744125
273 2 0.7775357599 4.5328906271 -5.7392907334
274 2 -1.5550714942 5.8796220238 -5.7392907334
275 2 0.7775357344 7.2263534646 -5.7392907334
276 2 -3.3234867849 5.7564479696 -3.4435744125
277 2 -1.7684152906 6.0027961221 -1.1478580916
278 2 -4.1010225192 7.3495275628 -1.1478580916
279 2 -1.7684152651 8.6962589595 -1.1478580916
280 1 -2.545951025 4.4097165289 1.9997135516
281 1 -2.5459510505 7.3495275628 0.2960027693
282 1 2.5459511388e-08 5.8796220238 2.5917189525
283 1 -2.5459510505 7.3495275628 4.2954298725
284 1 2.5459511388e-08 5.8796220238 6.5911460557
285 1 -2.545951025 4.4097165289 4.8874352734
286 2 0.7775357599 4.5328906271 8.0350069166
287 2 -0.7775357599 4.5328906271 1.1478580916
288 2 1.5550714942 5.8796220238 1.1478580916
289 2 -0.7775357344 7.2263534646 1.1478580916
290 2 -3.3234867594 6.0027961221 5.7392907334
291 2 -0.9908795308 7.3495275628 5.7392907334
292 2 -4.3143662901 7.472701617 3.4435744125
293 2 0.9908795053 4.4097165289 3.4435744125
294 2 -1.7684152397 5.7564479255 3.4435744125
295 2 -3.3234867849 8.942607156 1.1478580916
296 2 -1.5550715197 8.8194330578 3.4435744125
297 1 7.6378530495 -1.4699054949 -2.5917189525
298 1 7.637853075 -4.4097165289 -1.9997135516
299 2 6.8603173151 -3.0629850881 -3.4435744125
300 2 8.4153888094 -2.8166369357 -1.1478580916
301 2 6.0827815808 -1.4699054949 -1.1478580916
302 2 8.4153888349 -0.1231740983 -1.1478580916
303 1 7.637853075 -4.4097165289 1.9997135516
304 1 7.6378530495 -1.4699054949 0.2960027693
305 1 7.6378530495 -1.4699054949 4.2954298725
306 2 9.4062683656 -1.5930795932 1.1478580916
307 2 6.8603173406 -2.8166369357 5.7392907334
308 2 5.8694378099 -1.3467314408 3.4435744125
309 2 8.4153888603 -3.0629851322 3.4435744125
310 2 6.8603173151 -0.1231740983 5.7392907334
311 1 5.0919020245 2.939811034 -6.5911460557
312 1 5.09190205 0.0 -4.8874352734
313 1 5.0919020245 2.939811034 -2.5917189525
314 1 7.6378531005 1.4699054949 -4.2954298725
315 1 5.09190205 0.0 -1.9997135516
316 1 7.6378531005 1.4699054949 -0.2960027693
317 2 6.8603173151 3.0629850881 -3.4435744125
318 2 6.6469735697 0.0 -3.4435744125
319 2 6.0827815808 1.4699054949 -5.7392907334
320 2 4.3143662901 1.3467314408 -3.4435744125
321 2 5.8694377844 1.5930795932 -1.1478580916
322 2 3.5368305558 2.939811034 -1.1478580916
323 2 5.8694378099 4.2865424306 -1.1478580916
324 2 4.3143663156 1.5930795932 -8.0350069166
325 1 5.0919020245 2.939811034 7.1831515943
326 1 5.09190205 0.0 1.9997135516
327 1 5.0919020245 2.939811034 0.2960027693
328 1 7.6378531005 1.4699054949 2.5917189525
329 1 5.0919020245 2.939811034 4.2954298725
330 1 5.09190205 0.0 4.8874352734
331 2 6.8603173151 0.1231740983 1.1478580916
332 2 9.1929245692 1.4699054949 1.1478580916
333 2 6.8603173406 2.8166369357 1.1478580916
334 2 4.3143663156 1.5930795932 5.7392907334
335 2 6.6469735442 2.939811034 5.7392907334
336 2 3.3234867849 3.0629850881 3.4435744125
337 2 8.6287325803 0.0 3.4435744125
338 2 5.8694378353 1.3467313967 3.4435744125
339 2 4.3143662901 4.2865424306 5.7392907334
340 1 2.545951025 4.4097165289 -4.8874352734
341 1 2.5459509995 7.3495275628 -2.5917189525
342 1 5.0919020755 5.8796220238 -4.2954298725
343 1 2.545951025 4.4097165289 -1.9997135516
344 1 5.0919020755 5.8796220238 -0.2960027693
345 2 4.3143662901 7.472701617 -3.4435744125
346 2 4.1010225447 4.4097165289 -3.4435744125
347 2 5.8694378099 4.5328906271 -5.7392907334
348 2 3.5368305558 5.8796220238 -5.7392907334
349 2 1.7684152651 5.7564479696 -3.4435744125
350 2 3.3234867594 6.0027961221 -1.1478580916
351 2 0.9908795308 7.3495275628 -1.1478580916
352 2 3.3234867849 8.6962589595 -1.1478580916
353 1 2.545951025 4.4097165289 1.9997135516
354 1 2.5459509995 7.3495275628 0.2960027693
355 1 5.0919020755 5.8796220238 2.5917189525
356 1 2.5459509995 7.3495275628 4.2954298725
357 1 2.545951025 4.4097165289 4.8874352734
358 2 4.3143662901 4.5328906271 1.1478580916
359 2 6.6469735442 5.8796220238 1.1478580916
360 2 4.3143663156 7.2263534646 1.1478580916
361 2 1.7684152906 6.0027961221 5.7392907334
362 2 0.7775357599 7.472701617 3.4435744125
363 2 6.0827815553 4.4097165289 3.4435744125
364 2 3.3234868103 5.7564479255 3.4435744125
365 1 1.7763568394e-15 8.8194330578 -1.9997135516
366 2 1.5550715197 8.8194330578 -3.4435744125
367 1 1.7763568394e-15 8.8194330578 1.9997135516
368 2 1.7684152651 8.942607156 1.1478580916
369 2 8.6287326058 2.939811034 -1.1478580916
370 2 8.4153888349 3.0629850881 3.4435744125
371 1 7.637853075 4.4097165289 -1.9997135516
372 2 6.8603173151 5.7564479696 -3.4435744125
373 2 6.0827815808 7.3495275628 -1.1478580916
374 1 7.637853075 4.4097165289 1.9997135516
