# LAMMPS data file written by Ovito 3.10.6

50704 atoms
2 atom types

-30.5514123 96.74613895 xlo xhi
-52.9165983466 57.3263148755 ylo yhi
-68.87148825 96.42008355 zlo zhi
-63.648775625 0.0 0.0 xy xz yz

Masses

1 55.845  # Fe3+
2 15.9994  # O2-

Atoms  # atomic

1 2 -37.4117296406 -32.4610952954 -5.7392907334
2 2 -36.6341938808 -33.8078267361 1.1478580916
3 2 -39.9576806656 -28.0513787665 -5.7392907334
4 2 -39.9576806656 -28.0513787665 8.0350069166
5 2 -39.1801449058 -29.3981102072 1.1478580916
6 1 -43.2811673995 -24.9883936784 -0.2960027693
7 2 -42.5036316906 -23.6416622376 -5.7392907334
8 2 -42.5036316906 -23.6416622376 8.0350069166
9 2 -41.7260959308 -24.9883936784 1.1478580916
10 2 -45.0495827156 -19.2319457087 -5.7392907334
11 2 -45.0495827156 -19.2319457087 8.0350069166
12 2 -44.2720469558 -20.5786771495 1.1478580916
13 2 -46.8179979808 -16.1689606206 1.1478580916
14 2 -27.2279255406 -41.2805283531 -5.7392907334
15 2 -29.7738765401 -39.8106228582 -1.1478580916
16 1 -33.0973633505 -36.747637726 -6.5911460557
17 1 -33.0973633505 -36.747637726 -2.5917189525
18 1 -30.5514122745 -38.217543265 -4.2954298725
19 1 -30.5514122745 -38.217543265 -0.2960027693
20 1 -30.5514122745 -38.217543265 -7.1831515943
21 2 -31.3289480599 -36.6244636718 -3.4435744125
22 2 -29.7738765401 -39.5642746617 -5.7392907334
23 2 -29.7738765656 -36.8708118242 -5.7392907334
24 2 -28.9963408058 -38.217543265 -12.6264395584
25 2 -32.3198275906 -38.0943691667 -1.1478580916
26 2 -32.3198275651 -35.4009063293 -1.1478580916
27 2 -31.5422918308 -36.747637726 -8.0350069166
28 2 -33.8748990849 -35.4009063293 -8.0350069166
29 1 -33.0973633505 -36.747637726 7.1831515943
30 1 -30.5514122745 -38.217543265 9.4788677775
31 1 -33.0973633505 -36.747637726 0.2960027693
32 1 -30.5514122745 -38.217543265 2.5917189525
33 1 -33.0973633505 -36.747637726 4.2954298725
34 1 -30.5514122745 -38.217543265 6.5911460557
35 2 -31.3289480599 -36.6244636718 10.3307232375
36 2 -29.7738765656 -36.8708118242 8.0350069166
37 2 -28.9963408058 -38.217543265 1.1478580916
38 2 -32.3198275651 -35.4009063293 12.6264395584
39 2 -31.3289480344 -36.8708118242 1.1478580916
40 2 -31.5422918308 -36.747637726 5.7392907334
41 2 -29.5605327947 -39.6874487599 3.4435744125
42 2 -33.8748990849 -35.4009063293 5.7392907334
43 1 -33.0973632995 -33.8078267361 -14.0703004193
44 2 -33.8748990849 -32.2147471429 -17.2178720625
45 2 -32.3198275906 -32.4610952954 -19.5135883834
46 2 -34.8657785901 -30.9911898004 -14.9221557416
47 1 -35.6433143755 -32.3379211971 -6.5911460557
48 1 -35.6433143755 -32.3379211971 -2.5917189525
49 1 -33.0973632995 -33.8078267361 -4.2954298725
50 1 -33.0973632995 -33.8078267361 -0.2960027693
51 1 -35.6433143755 -32.3379211971 -13.4782948807
52 1 -33.0973632995 -33.8078267361 -11.1825786975
53 1 -35.6433143755 -32.3379211971 -9.4788677775
54 1 -33.0973632995 -33.8078267361 -7.1831515943
55 2 -33.8748990849 -32.2147471429 -3.4435744125
56 2 -34.0882428303 -35.2777322311 -3.4435744125
57 2 -32.3198275651 -35.1545581328 -5.7392907334
58 2 -34.6524348192 -33.8078267361 -5.7392907334
59 2 -32.3198275906 -32.4610952954 -5.7392907334
60 2 -36.4208501099 -33.9310007903 -3.4435744125
61 2 -31.5422918308 -33.8078267361 -12.6264395584
62 2 -34.8657786156 -33.6846526379 -1.1478580916
63 2 -37.1983858442 -32.3379211971 -1.1478580916
64 2 -34.8657785901 -30.9911898004 -1.1478580916
65 2 -33.8748990594 -32.4610952954 -12.6264395584
66 2 -34.0882428558 -32.3379211971 -8.0350069166
67 2 -32.1064838197 -35.2777322311 -10.3307232375
68 2 -34.8657785647 -33.9310008344 -10.3307232375
69 2 -36.4208501099 -30.9911898004 -8.0350069166
70 1 -35.6433143755 -32.3379211971 7.1831515943
71 1 -35.6433143755 -32.3379211971 11.1825786975
72 1 -33.0973632995 -33.8078267361 9.4788677775
73 1 -33.0973632995 -33.8078267361 13.4782948807
74 1 -35.6433143755 -32.3379211971 0.2960027693
75 1 -33.0973632995 -33.8078267361 2.5917189525
76 1 -35.6433143755 -32.3379211971 4.2954298725
77 1 -33.0973632995 -33.8078267361 6.5911460557
78 2 -33.8748990849 -32.2147471429 10.3307232375
79 2 -32.3198275651 -35.1545581328 8.0350069166
80 2 -34.6524348192 -33.8078267361 8.0350069166
81 2 -32.3198275906 -32.4610952954 8.0350069166
82 2 -33.8748990849 -35.1545581328 1.1478580916
83 2 -31.5422918308 -33.8078267361 1.1478580916
84 2 -34.8657785901 -30.9911898004 12.6264395584
85 2 -33.8748990594 -32.4610952954 1.1478580916
86 2 -36.4208500844 -33.6846526379 5.7392907334
87 2 -34.0882428558 -32.3379211971 5.7392907334
88 2 -37.4117296151 -32.2147471429 3.4435744125
89 2 -32.1064838197 -35.2777322311 3.4435744125
90 2 -34.8657785647 -33.9310008344 3.4435744125
91 2 -36.4208501099 -30.9911898004 5.7392907334
92 2 -31.5422918308 -33.8078267361 14.9221557416
93 2 -33.8748990594 -32.4610952954 14.9221557416
94 1 -35.6433143245 -29.3981102072 -18.0697275225
95 1 -35.6433143245 -29.3981102072 -14.0703004193
96 2 -36.4208501099 -27.8050306141 -17.2178720625
97 2 -34.8657786156 -28.0513787665 -19.5135883834
98 2 -37.4117296406 -29.274936109 -14.9221557416
99 2 -37.4117296151 -26.5814732716 -14.9221557416
100 1 -38.1892654005 -27.9282046682 -6.5911460557
101 1 -38.189265375 -30.8680157022 -4.8874352734
102 1 -38.1892654005 -27.9282046682 -2.5917189525
103 1 -35.6433143245 -29.3981102072 -4.2954298725
104 1 -38.189265375 -30.8680157022 -1.9997135516
105 1 -35.6433143245 -29.3981102072 -0.2960027693
106 1 -38.1892654005 -27.9282046682 -13.4782948807
107 1 -35.6433143245 -29.3981102072 -11.1825786975
108 1 -38.1892654005 -27.9282046682 -9.4788677775
109 1 -35.6433143245 -29.3981102072 -7.1831515943
110 1 -38.189265375 -30.8680157022 -8.8868623766
111 2 -36.4208501099 -27.8050306141 -3.4435744125
112 2 -36.6341938553 -30.8680157022 -3.4435744125
113 2 -34.8657785901 -30.7448416039 -5.7392907334
114 2 -37.1983858442 -29.3981102072 -5.7392907334
115 2 -34.8657786156 -28.0513787665 -5.7392907334
116 2 -38.9668011349 -29.5212842614 -3.4435744125
117 2 -36.4208501099 -30.7448416039 -12.6264395584
118 2 -34.0882428558 -29.3981102072 -12.6264395584
119 2 -37.4117296406 -29.274936109 -1.1478580916
120 2 -39.7443368692 -27.9282046682 -1.1478580916
121 2 -37.4117296151 -26.5814732716 -1.1478580916
122 2 -36.4208500844 -28.0513787665 -12.6264395584
123 2 -38.9668011094 -29.274936109 -8.0350069166
124 2 -36.6341938808 -27.9282046682 -8.0350069166
125 2 -39.9576806401 -27.8050306141 -10.3307232375
126 2 -34.6524348447 -30.8680157022 -10.3307232375
127 2 -37.4117295897 -29.5212843055 -10.3307232375
128 2 -38.9668011349 -26.5814732716 -8.0350069166
129 1 -38.1892654005 -27.9282046682 7.1831515943
130 1 -38.189265375 -30.8680157022 8.8868623766
131 1 -38.1892654005 -27.9282046682 11.1825786975
132 1 -35.6433143245 -29.3981102072 9.4788677775
133 1 -35.6433143245 -29.3981102072 13.4782948807
134 1 -38.189265375 -30.8680157022 1.9997135516
135 1 -38.1892654005 -27.9282046682 0.2960027693
136 1 -35.6433143245 -29.3981102072 2.5917189525
137 1 -38.1892654005 -27.9282046682 4.2954298725
138 1 -35.6433143245 -29.3981102072 6.5911460557
139 1 -38.189265375 -30.8680157022 4.8874352734
140 2 -36.4208501099 -27.8050306141 10.3307232375
141 2 -36.6341938553 -30.8680157022 10.3307232375
142 2 -34.8657785901 -30.7448416039 8.0350069166
143 2 -37.1983858442 -29.3981102072 8.0350069166
144 2 -34.8657786156 -28.0513787665 8.0350069166
145 2 -38.9668011349 -29.5212842614 10.3307232375
146 2 -36.4208501099 -30.7448416039 1.1478580916
147 2 -34.0882428558 -29.3981102072 1.1478580916
148 2 -37.4117296406 -29.274936109 12.6264395584
149 2 -37.4117296151 -26.5814732716 12.6264395584
150 2 -36.4208500844 -28.0513787665 1.1478580916
151 2 -38.9668011094 -29.274936109 5.7392907334
152 2 -36.6341938808 -27.9282046682 5.7392907334
153 2 -39.9576806401 -27.8050306141 3.4435744125
154 2 -34.6524348447 -30.8680157022 3.4435744125
155 2 -37.4117295897 -29.5212843055 3.4435744125
156 2 -38.9668011349 -26.5814732716 5.7392907334
157 1 -38.1892654005 -27.9282046682 14.0703004193
158 1 -35.6433143245 -29.3981102072 16.3660166025
159 2 -34.8657786156 -28.0513787665 21.8093045666
160 2 -36.4208501099 -30.7448416039 14.9221557416
161 2 -34.0882428558 -29.3981102072 14.9221557416
162 2 -36.4208500844 -28.0513787665 14.9221557416
163 2 -34.6524348447 -30.8680157022 17.2178720625
164 1 -40.7352164255 -23.5184881393 -16.3660166025
165 1 -38.1892653495 -24.9883936784 -18.0697275225
166 1 -38.1892653495 -24.9883936784 -14.0703004193
167 2 -38.9668011349 -23.3953140852 -17.2178720625
168 2 -37.4117296151 -26.335125075 -19.5135883834
169 2 -37.4117296406 -23.6416622376 -19.5135883834
170 2 -39.9576806656 -24.8652195801 -14.9221557416
171 2 -39.9576806401 -22.1717567427 -14.9221557416
172 1 -40.7352164255 -23.5184881393 -6.5911460557
173 1 -40.7352164 -26.4582991733 -4.8874352734
174 1 -40.7352164255 -23.5184881393 -2.5917189525
175 1 -38.1892653495 -24.9883936784 -4.2954298725
176 1 -40.7352164 -26.4582991733 -1.9997135516
177 1 -38.1892653495 -24.9883936784 -0.2960027693
178 1 -40.7352164 -26.4582991733 -11.7745840984
179 1 -40.7352164255 -23.5184881393 -13.4782948807
180 1 -38.1892653495 -24.9883936784 -11.1825786975
181 1 -40.7352164255 -23.5184881393 -9.4788677775
182 1 -38.1892653495 -24.9883936784 -7.1831515943
183 1 -40.7352164 -26.4582991733 -8.8868623766
184 2 -38.9668011349 -23.3953140852 -3.4435744125
185 2 -39.1801448803 -26.4582991733 -3.4435744125
186 2 -37.4117296151 -26.335125075 -5.7392907334
187 2 -39.7443368692 -24.9883936784 -5.7392907334
188 2 -37.4117296406 -23.6416622376 -5.7392907334
189 2 -41.5127521599 -25.1115677325 -3.4435744125
190 2 -38.9668011349 -26.335125075 -12.6264395584
191 2 -36.6341938808 -24.9883936784 -12.6264395584
192 2 -39.9576806656 -24.8652195801 -1.1478580916
193 2 -42.2902878942 -23.5184881393 -1.1478580916
194 2 -39.9576806401 -22.1717567427 -1.1478580916
195 2 -38.9668011094 -23.6416622376 -12.6264395584
196 2 -41.5127521344 -24.8652195801 -8.0350069166
197 2 -39.1801449058 -23.5184881393 -8.0350069166
198 2 -42.5036316651 -23.3953140852 -10.3307232375
199 2 -37.1983858697 -26.4582991733 -10.3307232375
200 2 -39.9576806147 -25.1115677766 -10.3307232375
201 2 -41.5127521599 -22.1717567427 -8.0350069166
202 1 -40.7352164255 -23.5184881393 7.1831515943
203 1 -40.7352164 -26.4582991733 8.8868623766
204 1 -40.7352164255 -23.5184881393 11.1825786975
205 1 -38.1892653495 -24.9883936784 9.4788677775
206 1 -40.7352164 -26.4582991733 11.7745840984
207 1 -38.1892653495 -24.9883936784 13.4782948807
208 1 -40.7352164 -26.4582991733 1.9997135516
209 1 -40.7352164255 -23.5184881393 0.2960027693
210 1 -38.1892653495 -24.9883936784 2.5917189525
211 1 -40.7352164255 -23.5184881393 4.2954298725
212 1 -38.1892653495 -24.9883936784 6.5911460557
213 1 -40.7352164 -26.4582991733 4.8874352734
214 2 -38.9668011349 -23.3953140852 10.3307232375
215 2 -39.1801448803 -26.4582991733 10.3307232375
216 2 -37.4117296151 -26.335125075 8.0350069166
217 2 -39.7443368692 -24.9883936784 8.0350069166
218 2 -37.4117296406 -23.6416622376 8.0350069166
219 2 -41.5127521599 -25.1115677325 10.3307232375
220 2 -38.9668011349 -26.335125075 1.1478580916
221 2 -36.6341938808 -24.9883936784 1.1478580916
222 2 -39.9576806656 -24.8652195801 12.6264395584
223 2 -39.9576806401 -22.1717567427 12.6264395584
224 2 -38.9668011094 -23.6416622376 1.1478580916
225 2 -41.5127521344 -24.8652195801 5.7392907334
226 2 -39.1801449058 -23.5184881393 5.7392907334
227 2 -42.5036316651 -23.3953140852 3.4435744125
228 2 -37.1983858697 -26.4582991733 3.4435744125
229 2 -39.9576806147 -25.1115677766 3.4435744125
230 2 -41.5127521599 -22.1717567427 5.7392907334
231 1 -40.7352164255 -23.5184881393 14.0703004193
232 1 -38.1892653495 -24.9883936784 16.3660166025
233 1 -38.1892653495 -24.9883936784 20.3654437057
234 2 -37.4117296406 -23.6416622376 21.8093045666
235 2 -38.9668011349 -26.335125075 14.9221557416
236 2 -36.6341938808 -24.9883936784 14.9221557416
237 2 -38.9668011094 -23.6416622376 14.9221557416
238 2 -39.1801449058 -23.5184881393 19.5135883834
239 2 -37.1983858697 -26.4582991733 17.2178720625
240 1 -40.7352163745 -20.5786771495 -18.0697275225
241 1 -40.7352163745 -20.5786771495 -14.0703004193
242 2 -41.5127521599 -18.9855975563 -17.2178720625
243 2 -39.9576806401 -21.9254085461 -19.5135883834
244 2 -39.9576806656 -19.2319457087 -19.5135883834
245 2 -42.5036316906 -20.4555030512 -14.9221557416
246 2 -42.5036316651 -17.7620402138 -14.9221557416
247 1 -43.2811674505 -19.1087716105 -6.5911460557
248 1 -43.281167425 -22.0485826444 -4.8874352734
249 1 -43.2811674505 -19.1087716105 -2.5917189525
250 1 -40.7352163745 -20.5786771495 -4.2954298725
251 1 -43.281167425 -22.0485826444 -1.9997135516
252 1 -40.7352163745 -20.5786771495 -0.2960027693
253 1 -43.281167425 -22.0485826444 -11.7745840984
254 1 -43.2811674505 -19.1087716105 -13.4782948807
255 1 -40.7352163745 -20.5786771495 -11.1825786975
256 1 -43.2811674505 -19.1087716105 -9.4788677775
257 1 -40.7352163745 -20.5786771495 -7.1831515943
258 1 -43.281167425 -22.0485826444 -8.8868623766
259 2 -41.5127521599 -18.9855975563 -3.4435744125
260 2 -41.7260959053 -22.0485826444 -3.4435744125
261 2 -39.9576806401 -21.9254085461 -5.7392907334
262 2 -42.2902878942 -20.5786771495 -5.7392907334
263 2 -39.9576806656 -19.2319457087 -5.7392907334
264 2 -44.0587031849 -20.7018512036 -3.4435744125
265 2 -41.5127521599 -21.9254085461 -12.6264395584
266 2 -39.1801449058 -20.5786771495 -12.6264395584
267 2 -42.5036316906 -20.4555030512 -1.1478580916
268 2 -44.8362389192 -19.1087716105 -1.1478580916
269 2 -42.5036316651 -17.7620402138 -1.1478580916
270 2 -41.5127521344 -19.2319457087 -12.6264395584
271 2 -44.0587031594 -20.4555030512 -8.0350069166
272 2 -41.7260959308 -19.1087716105 -8.0350069166
273 2 -45.0495826901 -18.9855975563 -10.3307232375
274 2 -39.7443368947 -22.0485826444 -10.3307232375
275 2 -42.5036316397 -20.7018512477 -10.3307232375
276 2 -44.0587031849 -17.7620402138 -8.0350069166
277 1 -43.2811674505 -19.1087716105 7.1831515943
278 1 -43.281167425 -22.0485826444 8.8868623766
279 1 -43.2811674505 -19.1087716105 11.1825786975
280 1 -40.7352163745 -20.5786771495 9.4788677775
281 1 -43.281167425 -22.0485826444 11.7745840984
282 1 -40.7352163745 -20.5786771495 13.4782948807
283 1 -43.281167425 -22.0485826444 1.9997135516
284 1 -43.2811674505 -19.1087716105 0.2960027693
285 1 -40.7352163745 -20.5786771495 2.5917189525
286 1 -43.2811674505 -19.1087716105 4.2954298725
287 1 -40.7352163745 -20.5786771495 6.5911460557
288 1 -43.281167425 -22.0485826444 4.8874352734
289 2 -41.5127521599 -18.9855975563 10.3307232375
290 2 -41.7260959053 -22.0485826444 10.3307232375
291 2 -39.9576806401 -21.9254085461 8.0350069166
292 2 -42.2902878942 -20.5786771495 8.0350069166
293 2 -39.9576806656 -19.2319457087 8.0350069166
294 2 -44.0587031849 -20.7018512036 10.3307232375
295 2 -41.5127521599 -21.9254085461 1.1478580916
296 2 -39.1801449058 -20.5786771495 1.1478580916
297 2 -42.5036316906 -20.4555030512 12.6264395584
298 2 -42.5036316651 -17.7620402138 12.6264395584
299 2 -41.5127521344 -19.2319457087 1.1478580916
300 2 -44.0587031594 -20.4555030512 5.7392907334
301 2 -41.7260959308 -19.1087716105 5.7392907334
302 2 -45.0495826901 -18.9855975563 3.4435744125
303 2 -39.7443368947 -22.0485826444 3.4435744125
304 2 -42.5036316397 -20.7018512477 3.4435744125
305 2 -44.0587031849 -17.7620402138 5.7392907334
306 1 -43.2811674505 -19.1087716105 14.0703004193
307 1 -40.7352163745 -20.5786771495 16.3660166025
308 1 -40.7352163745 -20.5786771495 20.3654437057
309 2 -39.9576806656 -19.2319457087 21.8093045666
310 2 -41.5127521599 -21.9254085461 14.9221557416
311 2 -39.1801449058 -20.5786771495 14.9221557416
312 2 -41.5127521344 -19.2319457087 14.9221557416
313 2 -41.7260959308 -19.1087716105 19.5135883834
314 2 -39.7443368947 -22.0485826444 17.2178720625
315 1 -43.2811673995 -16.1689606206 -18.0697275225
316 1 -43.2811673995 -16.1689606206 -14.0703004193
317 2 -44.0587031849 -14.5758810274 -17.2178720625
318 2 -42.5036316651 -17.5156920173 -19.5135883834
319 2 -42.5036316906 -14.8222291798 -19.5135883834
320 2 -45.0495826901 -13.3523236849 -14.9221557416
321 1 -45.8271184755 -14.6990550816 -6.5911460557
322 1 -45.82711845 -17.6388661155 -4.8874352734
323 1 -45.8271184755 -14.6990550816 -2.5917189525
324 1 -43.2811673995 -16.1689606206 -4.2954298725
325 1 -45.82711845 -17.6388661155 -1.9997135516
326 1 -43.2811673995 -16.1689606206 -0.2960027693
327 1 -45.8271184755 -14.6990550816 -13.4782948807
328 1 -43.2811673995 -16.1689606206 -11.1825786975
329 1 -45.8271184755 -14.6990550816 -9.4788677775
330 1 -43.2811673995 -16.1689606206 -7.1831515943
331 1 -45.82711845 -17.6388661155 -8.8868623766
332 2 -44.0587031849 -14.5758810274 -3.4435744125
333 2 -44.2720469303 -17.6388661155 -3.4435744125
334 2 -42.5036316651 -17.5156920173 -5.7392907334
335 2 -44.8362389192 -16.1689606206 -5.7392907334
336 2 -42.5036316906 -14.8222291798 -5.7392907334
337 2 -46.6046542099 -16.2921346748 -3.4435744125
338 2 -44.0587031849 -17.5156920173 -12.6264395584
339 2 -41.7260959308 -16.1689606206 -12.6264395584
340 2 -45.0495827156 -16.0457865223 -1.1478580916
341 2 -47.3821899442 -14.6990550816 -1.1478580916
342 2 -45.0495826901 -13.3523236849 -1.1478580916
343 2 -44.0587031594 -14.8222291798 -12.6264395584
344 2 -46.6046541844 -16.0457865223 -8.0350069166
345 2 -44.2720469558 -14.6990550816 -8.0350069166
346 2 -42.2902879197 -17.6388661155 -10.3307232375
347 2 -45.0495826647 -16.2921347189 -10.3307232375
348 2 -46.6046542099 -13.3523236849 -8.0350069166
349 1 -45.8271184755 -14.6990550816 7.1831515943
350 1 -45.82711845 -17.6388661155 8.8868623766
351 1 -45.8271184755 -14.6990550816 11.1825786975
352 1 -43.2811673995 -16.1689606206 9.4788677775
353 1 -43.2811673995 -16.1689606206 13.4782948807
354 1 -45.82711845 -17.6388661155 1.9997135516
355 1 -45.8271184755 -14.6990550816 0.2960027693
356 1 -43.2811673995 -16.1689606206 2.5917189525
357 1 -45.8271184755 -14.6990550816 4.2954298725
358 1 -43.2811673995 -16.1689606206 6.5911460557
359 1 -45.82711845 -17.6388661155 4.8874352734
360 2 -44.0587031849 -14.5758810274 10.3307232375
361 2 -44.2720469303 -17.6388661155 10.3307232375
362 2 -42.5036316651 -17.5156920173 8.0350069166
363 2 -44.8362389192 -16.1689606206 8.0350069166
364 2 -42.5036316906 -14.8222291798 8.0350069166
365 2 -44.0587031849 -17.5156920173 1.1478580916
366 2 -41.7260959308 -16.1689606206 1.1478580916
367 2 -45.0495827156 -16.0457865223 12.6264395584
368 2 -45.0495826901 -13.3523236849 12.6264395584
369 2 -44.0587031594 -14.8222291798 1.1478580916
370 2 -46.6046541844 -16.0457865223 5.7392907334
371 2 -44.2720469558 -14.6990550816 5.7392907334
372 2 -47.5955337151 -14.5758810274 3.4435744125
373 2 -42.2902879197 -17.6388661155 3.4435744125
374 2 -45.0495826647 -16.2921347189 3.4435744125
375 2 -46.6046542099 -13.3523236849 5.7392907334
376 1 -43.2811673995 -16.1689606206 16.3660166025
377 2 -44.0587031849 -17.5156920173 14.9221557416
378 2 -41.7260959308 -16.1689606206 14.9221557416
379 2 -44.0587031594 -14.8222291798 14.9221557416
380 2 -42.2902879197 -17.6388661155 17.2178720625
381 1 -45.8271184245 -11.7592440917 -14.0703004193
382 1 -48.3730695005 -10.2893385527 -6.5911460557
383 1 -48.3730695005 -10.2893385527 -2.5917189525
384 1 -45.8271184245 -11.7592440917 -4.2954298725
385 1 -45.8271184245 -11.7592440917 -0.2960027693
386 1 -45.8271184245 -11.7592440917 -11.1825786975
387 1 -45.8271184245 -11.7592440917 -7.1831515943
388 2 -46.6046542099 -10.1661644985 -3.4435744125
389 2 -46.8179979553 -13.2291495866 -3.4435744125
390 2 -45.0495826901 -13.1059754884 -5.7392907334
391 2 -47.3821899442 -11.7592440917 -5.7392907334
392 2 -45.0495827156 -10.412512651 -5.7392907334
393 2 -44.2720469558 -11.7592440917 -12.6264395584
394 2 -47.5955337406 -11.6360699935 -1.1478580916
395 2 -47.5955337151 -8.942607156 -1.1478580916
396 2 -46.6046541844 -10.412512651 -12.6264395584
397 2 -46.8179979808 -10.2893385527 -8.0350069166
398 2 -44.8362389447 -13.2291495866 -10.3307232375
399 1 -48.3730695005 -10.2893385527 7.1831515943
400 1 -45.8271184245 -11.7592440917 9.4788677775
401 1 -45.8271184245 -11.7592440917 13.4782948807
402 1 -48.3730695005 -10.2893385527 0.2960027693
403 1 -45.8271184245 -11.7592440917 2.5917189525
404 1 -48.3730695005 -10.2893385527 4.2954298725
405 1 -45.8271184245 -11.7592440917 6.5911460557
406 2 -46.6046542099 -10.1661644985 10.3307232375
407 2 -46.8179979553 -13.2291495866 10.3307232375
408 2 -45.0495826901 -13.1059754884 8.0350069166
409 2 -47.3821899442 -11.7592440917 8.0350069166
410 2 -45.0495827156 -10.412512651 8.0350069166
411 2 -46.6046542099 -13.1059754884 1.1478580916
412 2 -44.2720469558 -11.7592440917 1.1478580916
413 2 -46.6046541844 -10.412512651 1.1478580916
414 2 -46.8179979808 -10.2893385527 5.7392907334
415 2 -44.8362389447 -13.2291495866 3.4435744125
416 2 -47.5955336897 -11.88241819 3.4435744125
417 2 -44.2720469558 -11.7592440917 14.9221557416
418 2 -44.8362389447 -13.2291495866 17.2178720625
419 1 -48.3730694495 -7.3495275628 -4.2954298725
420 1 -48.3730694495 -7.3495275628 -0.2960027693
421 1 -48.3730694495 -7.3495275628 -7.1831515943
422 2 -49.1506052349 -5.7564479696 -3.4435744125
423 2 -47.5955337151 -8.6962589595 -5.7392907334
424 2 -47.5955337406 -6.0027961221 -5.7392907334
425 2 -46.8179979808 -7.3495275628 -12.6264395584
426 2 -47.3821899697 -8.8194330578 -10.3307232375
427 1 -48.3730694495 -7.3495275628 9.4788677775
428 1 -48.3730694495 -7.3495275628 2.5917189525
429 1 -48.3730694495 -7.3495275628 6.5911460557
430 2 -47.5955337151 -8.6962589595 8.0350069166
431 2 -47.5955337406 -6.0027961221 8.0350069166
432 2 -49.1506052349 -8.6962589595 1.1478580916
433 2 -46.8179979808 -7.3495275628 1.1478580916
434 2 -49.1506052094 -6.0027961221 1.1478580916
435 2 -47.3821899697 -8.8194330578 3.4435744125
436 2 -46.8179979808 -7.3495275628 14.9221557416
437 2 -49.3639490058 -2.939811034 1.1478580916
438 2 -22.1360234651 -44.2203393871 -1.1478580916
439 2 -24.6819744901 -39.8106228582 -14.9221557416
440 1 -25.4595102755 -41.1573542549 -6.5911460557
441 1 -25.4595102755 -41.1573542549 -2.5917189525
442 1 -22.9135591995 -42.6272597939 -4.2954298725
443 1 -22.9135591995 -42.6272597939 -0.2960027693
444 1 -22.9135591995 -42.6272597939 -11.1825786975
445 1 -25.4595102755 -41.1573542549 -9.4788677775
446 1 -22.9135591995 -42.6272597939 -7.1831515943
447 2 -23.6910949849 -41.0341802007 -3.4435744125
448 2 -22.1360234651 -43.9739911906 -5.7392907334
449 2 -24.4686307192 -42.6272597939 -5.7392907334
450 2 -22.1360234906 -41.2805283531 -5.7392907334
451 2 -21.3584877308 -42.6272597939 -12.6264395584
452 2 -24.6819745156 -42.5040856956 -1.1478580916
453 2 -27.0145817442 -41.1573542549 -1.1478580916
454 2 -24.6819744901 -39.8106228582 -1.1478580916
455 2 -23.6910949594 -41.2805283531 -12.6264395584
456 2 -23.9044387558 -41.1573542549 -8.0350069166
457 2 -26.2370460099 -39.8106228582 -8.0350069166
458 1 -25.4595102755 -41.1573542549 7.1831515943
459 1 -25.4595102755 -41.1573542549 11.1825786975
460 1 -22.9135591995 -42.6272597939 9.4788677775
461 1 -25.4595102755 -41.1573542549 0.2960027693
462 1 -22.9135591995 -42.6272597939 2.5917189525
463 1 -25.4595102755 -41.1573542549 4.2954298725
464 1 -22.9135591995 -42.6272597939 6.5911460557
465 2 -23.6910949849 -41.0341802007 10.3307232375
466 2 -22.1360234651 -43.9739911906 8.0350069166
467 2 -24.4686307192 -42.6272597939 8.0350069166
468 2 -22.1360234906 -41.2805283531 8.0350069166
469 2 -23.6910949849 -43.9739911906 1.1478580916
470 2 -21.3584877308 -42.6272597939 1.1478580916
471 2 -24.6819744901 -39.8106228582 12.6264395584
472 2 -23.6910949594 -41.2805283531 1.1478580916
473 2 -23.9044387558 -41.1573542549 5.7392907334
474 2 -27.2279255151 -41.0341802007 3.4435744125
475 2 -21.9226797197 -44.0971652888 3.4435744125
476 2 -24.6819744647 -42.7504338922 3.4435744125
477 2 -26.2370460099 -39.8106228582 5.7392907334
478 2 -21.3584877308 -42.6272597939 14.9221557416
479 2 -23.6910949594 -41.2805283531 14.9221557416
480 1 -28.0054613005 -36.747637726 -16.3660166025
481 1 -25.4595102245 -38.217543265 -18.0697275225
482 1 -25.4595102245 -38.217543265 -14.0703004193
483 2 -26.2370460099 -36.6244636718 -17.2178720625
484 2 -24.6819745156 -36.8708118242 -19.5135883834
485 2 -27.2279255406 -38.0943691667 -14.9221557416
486 2 -29.5605327692 -36.747637726 -14.9221557416
487 2 -27.2279255151 -35.4009063293 -14.9221557416
488 1 -28.0054613005 -36.747637726 -6.5911460557
489 1 -28.005461275 -39.6874487599 -4.8874352734
490 1 -28.0054613005 -36.747637726 -2.5917189525
491 1 -25.4595102245 -38.217543265 -4.2954298725
492 1 -28.005461275 -39.6874487599 -1.9997135516
493 1 -25.4595102245 -38.217543265 -0.2960027693
494 1 -28.005461275 -39.6874487599 -11.7745840984
495 1 -28.0054613005 -36.747637726 -13.4782948807
496 1 -25.4595102245 -38.217543265 -11.1825786975
497 1 -28.0054613005 -36.747637726 -9.4788677775
498 1 -25.4595102245 -38.217543265 -7.1831515943
499 1 -28.005461275 -39.6874487599 -8.8868623766
500 2 -26.2370460099 -36.6244636718 -3.4435744125
501 2 -26.4503897553 -39.6874487599 -3.4435744125
502 2 -24.6819744901 -39.5642746617 -5.7392907334
503 2 -27.0145817442 -38.217543265 -5.7392907334
504 2 -24.6819745156 -36.8708118242 -5.7392907334
505 2 -28.7829970349 -38.3407173192 -3.4435744125
506 2 -26.2370460099 -39.5642746617 -12.6264395584
507 2 -23.9044387558 -38.217543265 -12.6264395584
508 2 -27.2279255406 -38.0943691667 -1.1478580916
509 2 -29.5605327692 -36.747637726 -1.1478580916
510 2 -27.2279255151 -35.4009063293 -1.1478580916
511 2 -26.2370459844 -36.8708118242 -12.6264395584
512 2 -28.7829970094 -38.0943691667 -8.0350069166
513 2 -26.4503897808 -36.747637726 -8.0350069166
514 2 -29.7738765401 -36.6244636718 -10.3307232375
515 2 -24.4686307447 -39.6874487599 -10.3307232375
516 2 -27.2279254897 -38.3407173633 -10.3307232375
517 2 -28.7829970349 -35.4009063293 -8.0350069166
518 1 -28.0054613005 -36.747637726 7.1831515943
519 1 -28.005461275 -39.6874487599 8.8868623766
520 1 -28.0054613005 -36.747637726 11.1825786975
521 1 -25.4595102245 -38.217543265 9.4788677775
522 1 -28.005461275 -39.6874487599 11.7745840984
523 1 -25.4595102245 -38.217543265 13.4782948807
524 1 -28.005461275 -39.6874487599 1.9997135516
525 1 -28.0054613005 -36.747637726 0.2960027693
526 1 -25.4595102245 -38.217543265 2.5917189525
527 1 -28.0054613005 -36.747637726 4.2954298725
528 1 -25.4595102245 -38.217543265 6.5911460557
529 1 -28.005461275 -39.6874487599 4.8874352734
530 2 -26.2370460099 -36.6244636718 10.3307232375
531 2 -26.4503897553 -39.6874487599 10.3307232375
532 2 -24.6819744901 -39.5642746617 8.0350069166
533 2 -27.0145817442 -38.217543265 8.0350069166
534 2 -24.6819745156 -36.8708118242 8.0350069166
535 2 -28.7829970349 -38.3407173192 10.3307232375
536 2 -26.2370460099 -39.5642746617 1.1478580916
537 2 -23.9044387558 -38.217543265 1.1478580916
538 2 -27.2279255406 -38.0943691667 12.6264395584
539 2 -29.5605327692 -36.747637726 12.6264395584
540 2 -27.2279255151 -35.4009063293 12.6264395584
541 2 -26.2370459844 -36.8708118242 1.1478580916
542 2 -28.7829970094 -38.0943691667 5.7392907334
543 2 -26.4503897808 -36.747637726 5.7392907334
544 2 -29.7738765401 -36.6244636718 3.4435744125
545 2 -24.4686307447 -39.6874487599 3.4435744125
546 2 -27.2279254897 -38.3407173633 3.4435744125
547 2 -28.7829970349 -35.4009063293 5.7392907334
548 1 -28.0054613005 -36.747637726 14.0703004193
549 1 -25.4595102245 -38.217543265 16.3660166025
550 1 -28.0054613005 -36.747637726 18.0697275225
551 2 -24.6819745156 -36.8708118242 21.8093045666
552 2 -26.2370460099 -39.5642746617 14.9221557416
553 2 -23.9044387558 -38.217543265 14.9221557416
554 2 -26.2370459844 -36.8708118242 14.9221557416
555 2 -26.4503897808 -36.747637726 19.5135883834
556 2 -24.4686307447 -39.6874487599 17.2178720625
557 2 -28.7829970349 -35.4009063293 19.5135883834
558 1 -30.5514123255 -32.3379211971 -20.3654437057
559 1 -30.5514123255 -32.3379211971 -16.3660166025
560 1 -28.0054612495 -33.8078267361 -18.0697275225
561 1 -30.5514123 -35.2777322311 -15.7740112016
562 1 -28.0054612495 -33.8078267361 -14.0703004193
563 1 -28.0054612495 -33.8078267361 -20.9574492443
564 2 -28.7829970349 -32.2147471429 -17.2178720625
565 2 -28.9963407803 -35.2777322311 -17.2178720625
566 2 -27.2279255151 -35.1545581328 -19.5135883834
567 2 -29.5605327692 -33.8078267361 -19.5135883834
568 2 -27.2279255406 -32.4610952954 -19.5135883834
569 2 -31.3289480599 -33.9310007903 -17.2178720625
570 2 -29.7738765656 -33.6846526379 -14.9221557416
571 2 -32.1064837942 -32.3379211971 -14.9221557416
572 2 -29.7738765401 -30.9911898004 -14.9221557416
573 2 -28.9963408058 -32.3379211971 -21.8093045666
574 2 -31.3289480599 -30.9911898004 -21.8093045666
575 1 -30.5514123255 -32.3379211971 -6.5911460557
576 1 -30.5514123 -35.2777322311 -4.8874352734
577 1 -30.5514123255 -32.3379211971 -2.5917189525
578 1 -28.0054612495 -33.8078267361 -4.2954298725
579 1 -30.5514123 -35.2777322311 -1.9997135516
580 1 -28.0054612495 -33.8078267361 -0.2960027693
581 1 -30.5514123 -35.2777322311 -11.7745840984
582 1 -30.5514123255 -32.3379211971 -13.4782948807
583 1 -28.0054612495 -33.8078267361 -11.1825786975
584 1 -30.5514123255 -32.3379211971 -9.4788677775
585 1 -28.0054612495 -33.8078267361 -7.1831515943
586 1 -30.5514123 -35.2777322311 -8.8868623766
587 2 -28.7829970349 -32.2147471429 -3.4435744125
588 2 -28.9963407803 -35.2777322311 -3.4435744125
589 2 -27.2279255151 -35.1545581328 -5.7392907334
590 2 -29.5605327692 -33.8078267361 -5.7392907334
591 2 -27.2279255406 -32.4610952954 -5.7392907334
592 2 -31.3289480599 -33.9310007903 -3.4435744125
593 2 -28.7829970349 -35.1545581328 -12.6264395584
594 2 -26.4503897808 -33.8078267361 -12.6264395584
595 2 -29.7738765656 -33.6846526379 -1.1478580916
596 2 -32.1064837942 -32.3379211971 -1.1478580916
597 2 -29.7738765401 -30.9911898004 -1.1478580916
598 2 -28.7829970094 -32.4610952954 -12.6264395584
599 2 -31.3289480344 -33.6846526379 -8.0350069166
600 2 -28.9963408058 -32.3379211971 -8.0350069166
601 2 -32.3198275651 -32.2147471429 -10.3307232375