# LAMMPS data file written by Ovito 3.10.6

10970 atoms
2 atom types

-30.0 30.0 xlo xhi
-30.0 30.0 ylo yhi
-30.0 30.0 zlo zhi

Masses

1 55.845  # Fe3+
2 15.9994  # O2-

Atoms  # atomic

1 2 -17.0441214406 -23.6416622376 -5.7392907334
2 2 -19.5900724401 -22.1717567427 -1.1478580916
3 2 -16.2665856808 -24.9883936784 1.1478580916
4 1 -20.3676081745 -20.5786771495 -4.2954298725
5 1 -20.3676081745 -20.5786771495 -0.2960027693
6 1 -20.3676081745 -20.5786771495 -7.1831515943
7 2 -21.1451439599 -18.9855975563 -3.4435744125
8 2 -19.5900724401 -21.9254085461 -5.7392907334
9 2 -19.5900724656 -19.2319457087 -5.7392907334
10 2 -22.1360234651 -17.7620402138 -1.1478580916
11 2 -21.3584877308 -19.1087716105 -8.0350069166
12 1 -22.9135592505 -19.1087716105 0.2960027693
13 1 -20.3676081745 -20.5786771495 2.5917189525
14 1 -20.3676081745 -20.5786771495 6.5911460557
15 2 -19.5900724656 -19.2319457087 8.0350069166
16 2 -18.8125367058 -20.5786771495 1.1478580916
17 2 -21.1451439344 -19.2319457087 1.1478580916
18 2 -21.3584877308 -19.1087716105 5.7392907334
19 2 -19.3767286947 -22.0485826444 3.4435744125
20 1 -25.4595102755 -14.6990550816 -2.5917189525
21 1 -22.9135591995 -16.1689606206 -4.2954298725
22 1 -22.9135591995 -16.1689606206 -0.2960027693
23 1 -22.9135591995 -16.1689606206 -7.1831515943
24 2 -23.6910949849 -14.5758810274 -3.4435744125
25 2 -23.9044387303 -17.6388661155 -3.4435744125
26 2 -22.1360234651 -17.5156920173 -5.7392907334
27 2 -24.4686307192 -16.1689606206 -5.7392907334
28 2 -22.1360234906 -14.8222291798 -5.7392907334
29 2 -21.3584877308 -16.1689606206 -12.6264395584
30 2 -24.6819745156 -16.0457865223 -1.1478580916
31 2 -24.6819744901 -13.3523236849 -1.1478580916
32 2 -23.9044387558 -14.6990550816 -8.0350069166
33 2 -21.9226797197 -17.6388661155 -10.3307232375
34 1 -22.9135591995 -16.1689606206 9.4788677775
35 1 -25.4595102755 -14.6990550816 0.2960027693
36 1 -22.9135591995 -16.1689606206 2.5917189525
37 1 -25.4595102755 -14.6990550816 4.2954298725
38 1 -22.9135591995 -16.1689606206 6.5911460557
39 2 -23.6910949849 -14.5758810274 10.3307232375
40 2 -22.1360234651 -17.5156920173 8.0350069166
41 2 -22.1360234906 -14.8222291798 8.0350069166
42 2 -23.6910949849 -17.5156920173 1.1478580916
43 2 -21.3584877308 -16.1689606206 1.1478580916
44 2 -23.6910949594 -14.8222291798 1.1478580916
45 2 -23.9044387558 -14.6990550816 5.7392907334
46 2 -21.9226797197 -17.6388661155 3.4435744125
47 2 -24.6819744647 -16.2921347189 3.4435744125
48 2 -26.2370460099 -13.3523236849 5.7392907334
49 1 -25.4595102245 -11.7592440917 -4.2954298725
50 1 -25.4595102245 -11.7592440917 -0.2960027693
51 1 -25.4595102245 -11.7592440917 -7.1831515943
52 2 -26.2370460099 -10.1661644985 -3.4435744125
53 2 -26.4503897553 -13.2291495866 -3.4435744125
54 2 -24.6819744901 -13.1059754884 -5.7392907334
55 2 -24.6819745156 -10.412512651 -5.7392907334
56 2 -23.9044387558 -11.7592440917 -12.6264395584
57 2 -27.2279255406 -11.6360699935 -1.1478580916
58 2 -27.2279255151 -8.942607156 -1.1478580916
59 2 -26.4503897808 -10.2893385527 -8.0350069166
60 2 -24.4686307447 -13.2291495866 -10.3307232375
61 1 -25.4595102245 -11.7592440917 9.4788677775
62 1 -28.0054613005 -10.2893385527 0.2960027693
63 1 -25.4595102245 -11.7592440917 2.5917189525
64 1 -25.4595102245 -11.7592440917 6.5911460557
65 2 -26.2370460099 -10.1661644985 10.3307232375
66 2 -24.6819744901 -13.1059754884 8.0350069166
67 2 -24.6819745156 -10.412512651 8.0350069166
68 2 -26.2370460099 -13.1059754884 1.1478580916
69 2 -23.9044387558 -11.7592440917 1.1478580916
70 2 -26.2370459844 -10.412512651 1.1478580916
71 2 -26.4503897808 -10.2893385527 5.7392907334
72 2 -24.4686307447 -13.2291495866 3.4435744125
73 2 -27.2279254897 -11.88241819 3.4435744125
74 1 -28.0054612495 -7.3495275628 -4.2954298725
75 1 -28.0054612495 -7.3495275628 -0.2960027693
76 1 -28.0054612495 -7.3495275628 -7.1831515943
77 2 -28.7829970349 -5.7564479696 -3.4435744125
78 2 -27.2279255151 -8.6962589595 -5.7392907334
79 2 -27.2279255406 -6.0027961221 -5.7392907334
80 1 -28.0054612495 -7.3495275628 2.5917189525
81 1 -28.0054612495 -7.3495275628 6.5911460557
82 2 -27.2279255151 -8.6962589595 8.0350069166
83 2 -27.2279255406 -6.0027961221 8.0350069166
84 2 -26.4503897808 -7.3495275628 1.1478580916
85 2 -28.7829970094 -6.0027961221 1.1478580916
86 2 -27.0145817697 -8.8194330578 3.4435744125
87 2 -28.9963408058 -2.939811034 1.1478580916
88 2 -11.9522193651 -26.5814732716 -1.1478580916
89 1 -15.2757061755 -23.5184881393 -6.5911460557
90 1 -15.2757061755 -23.5184881393 -2.5917189525
91 1 -12.7297550995 -24.9883936784 -4.2954298725
92 1 -12.7297550995 -24.9883936784 -0.2960027693
93 1 -15.2757061755 -23.5184881393 -9.4788677775
94 1 -12.7297550995 -24.9883936784 -7.1831515943
95 2 -13.5072908849 -23.3953140852 -3.4435744125
96 2 -11.9522193651 -26.335125075 -5.7392907334
97 2 -14.2848266192 -24.9883936784 -5.7392907334
98 2 -11.9522193906 -23.6416622376 -5.7392907334
99 2 -14.4981704156 -24.8652195801 -1.1478580916
100 2 -16.8307776442 -23.5184881393 -1.1478580916
101 2 -14.4981703901 -22.1717567427 -1.1478580916
102 2 -13.7206346558 -23.5184881393 -8.0350069166
103 2 -16.0532419099 -22.1717567427 -8.0350069166
104 1 -15.2757061755 -23.5184881393 7.1831515943
105 1 -12.7297550995 -24.9883936784 9.4788677775
106 1 -15.2757061755 -23.5184881393 0.2960027693
107 1 -12.7297550995 -24.9883936784 2.5917189525
108 1 -15.2757061755 -23.5184881393 4.2954298725
109 1 -12.7297550995 -24.9883936784 6.5911460557
110 2 -13.5072908849 -23.3953140852 10.3307232375
111 2 -14.2848266192 -24.9883936784 8.0350069166
112 2 -11.9522193906 -23.6416622376 8.0350069166
113 2 -13.5072908849 -26.335125075 1.1478580916
114 2 -11.1746836308 -24.9883936784 1.1478580916
115 2 -14.4981703901 -22.1717567427 12.6264395584
116 2 -13.5072908594 -23.6416622376 1.1478580916
117 2 -13.7206346558 -23.5184881393 5.7392907334
118 2 -17.0441214151 -23.3953140852 3.4435744125
119 2 -11.7388756197 -26.4582991733 3.4435744125
120 2 -14.4981703647 -25.1115677766 3.4435744125
121 2 -16.0532419099 -22.1717567427 5.7392907334
122 1 -15.2757061245 -20.5786771495 -14.0703004193
123 2 -17.0441214151 -17.7620402138 -14.9221557416
124 1 -17.8216572005 -19.1087716105 -6.5911460557
125 1 -17.821657175 -22.0485826444 -4.8874352734
126 1 -17.8216572005 -19.1087716105 -2.5917189525
127 1 -15.2757061245 -20.5786771495 -4.2954298725
128 1 -17.821657175 -22.0485826444 -1.9997135516
129 1 -15.2757061245 -20.5786771495 -0.2960027693
130 1 -17.8216572005 -19.1087716105 -13.4782948807
131 1 -15.2757061245 -20.5786771495 -11.1825786975
132 1 -17.8216572005 -19.1087716105 -9.4788677775
133 1 -15.2757061245 -20.5786771495 -7.1831515943
134 1 -17.821657175 -22.0485826444 -8.8868623766
135 2 -16.0532419099 -18.9855975563 -3.4435744125
136 2 -16.2665856553 -22.0485826444 -3.4435744125
137 2 -14.4981703901 -21.9254085461 -5.7392907334
138 2 -16.8307776442 -20.5786771495 -5.7392907334
139 2 -14.4981704156 -19.2319457087 -5.7392907334
140 2 -18.5991929349 -20.7018512036 -3.4435744125
141 2 -16.0532419099 -21.9254085461 -12.6264395584
142 2 -13.7206346558 -20.5786771495 -12.6264395584
143 2 -17.0441214406 -20.4555030512 -1.1478580916
144 2 -19.3767286692 -19.1087716105 -1.1478580916
145 2 -17.0441214151 -17.7620402138 -1.1478580916
146 2 -16.0532418844 -19.2319457087 -12.6264395584
147 2 -18.5991929094 -20.4555030512 -8.0350069166
148 2 -16.2665856808 -19.1087716105 -8.0350069166
149 2 -19.5900724401 -18.9855975563 -10.3307232375
150 2 -14.2848266447 -22.0485826444 -10.3307232375
151 2 -17.0441213897 -20.7018512477 -10.3307232375
152 2 -18.5991929349 -17.7620402138 -8.0350069166
153 1 -17.8216572005 -19.1087716105 7.1831515943
154 1 -17.821657175 -22.0485826444 8.8868623766
155 1 -17.8216572005 -19.1087716105 11.1825786975
156 1 -15.2757061245 -20.5786771495 9.4788677775
157 1 -15.2757061245 -20.5786771495 13.4782948807
158 1 -17.821657175 -22.0485826444 1.9997135516
159 1 -17.8216572005 -19.1087716105 0.2960027693
160 1 -15.2757061245 -20.5786771495 2.5917189525
161 1 -17.8216572005 -19.1087716105 4.2954298725
162 1 -15.2757061245 -20.5786771495 6.5911460557
163 1 -17.821657175 -22.0485826444 4.8874352734
164 2 -16.0532419099 -18.9855975563 10.3307232375
165 2 -16.2665856553 -22.0485826444 10.3307232375
166 2 -14.4981703901 -21.9254085461 8.0350069166
167 2 -16.8307776442 -20.5786771495 8.0350069166
168 2 -14.4981704156 -19.2319457087 8.0350069166
169 2 -18.5991929349 -20.7018512036 10.3307232375
170 2 -16.0532419099 -21.9254085461 1.1478580916
171 2 -13.7206346558 -20.5786771495 1.1478580916
172 2 -17.0441214406 -20.4555030512 12.6264395584
173 2 -17.0441214151 -17.7620402138 12.6264395584
174 2 -16.0532418844 -19.2319457087 1.1478580916
175 2 -18.5991929094 -20.4555030512 5.7392907334
176 2 -16.2665856808 -19.1087716105 5.7392907334
177 2 -19.5900724401 -18.9855975563 3.4435744125
178 2 -14.2848266447 -22.0485826444 3.4435744125
179 2 -17.0441213897 -20.7018512477 3.4435744125
180 2 -18.5991929349 -17.7620402138 5.7392907334
181 1 -17.8216572005 -19.1087716105 14.0703004193
182 2 -13.7206346558 -20.5786771495 14.9221557416
183 2 -16.0532418844 -19.2319457087 14.9221557416
184 1 -17.8216571495 -16.1689606206 -14.0703004193
185 2 -18.5991929349 -14.5758810274 -17.2178720625
186 2 -17.0441214406 -14.8222291798 -19.5135883834
187 2 -19.5900724656 -16.0457865223 -14.9221557416
188 2 -19.5900724401 -13.3523236849 -14.9221557416
189 1 -20.3676082255 -14.6990550816 -6.5911460557
190 1 -20.3676082 -17.6388661155 -4.8874352734
191 1 -20.3676082255 -14.6990550816 -2.5917189525
192 1 -17.8216571495 -16.1689606206 -4.2954298725
193 1 -20.3676082 -17.6388661155 -1.9997135516
194 1 -17.8216571495 -16.1689606206 -0.2960027693
195 1 -20.3676082 -17.6388661155 -11.7745840984
196 1 -20.3676082255 -14.6990550816 -13.4782948807
197 1 -17.8216571495 -16.1689606206 -11.1825786975
198 1 -20.3676082255 -14.6990550816 -9.4788677775
199 1 -17.8216571495 -16.1689606206 -7.1831515943
200 1 -20.3676082 -17.6388661155 -8.8868623766
201 2 -18.5991929349 -14.5758810274 -3.4435744125
202 2 -18.8125366803 -17.6388661155 -3.4435744125
203 2 -17.0441214151 -17.5156920173 -5.7392907334
204 2 -19.3767286692 -16.1689606206 -5.7392907334
205 2 -17.0441214406 -14.8222291798 -5.7392907334
206 2 -21.1451439599 -16.2921346748 -3.4435744125
207 2 -18.5991929349 -17.5156920173 -12.6264395584
208 2 -16.2665856808 -16.1689606206 -12.6264395584
209 2 -19.5900724656 -16.0457865223 -1.1478580916
210 2 -21.9226796942 -14.6990550816 -1.1478580916
211 2 -19.5900724401 -13.3523236849 -1.1478580916
212 2 -18.5991929094 -14.8222291798 -12.6264395584
213 2 -21.1451439344 -16.0457865223 -8.0350069166
214 2 -18.8125367058 -14.6990550816 -8.0350069166
215 2 -22.1360234651 -14.5758810274 -10.3307232375
216 2 -16.8307776697 -17.6388661155 -10.3307232375
217 2 -19.5900724147 -16.2921347189 -10.3307232375
218 2 -21.1451439599 -13.3523236849 -8.0350069166
219 1 -20.3676082255 -14.6990550816 7.1831515943
220 1 -20.3676082 -17.6388661155 8.8868623766
221 1 -20.3676082255 -14.6990550816 11.1825786975
222 1 -17.8216571495 -16.1689606206 9.4788677775
223 1 -20.3676082 -17.6388661155 11.7745840984
224 1 -17.8216571495 -16.1689606206 13.4782948807
225 1 -20.3676082 -17.6388661155 1.9997135516
226 1 -20.3676082255 -14.6990550816 0.2960027693
227 1 -17.8216571495 -16.1689606206 2.5917189525
228 1 -20.3676082255 -14.6990550816 4.2954298725
229 1 -17.8216571495 -16.1689606206 6.5911460557
230 1 -20.3676082 -17.6388661155 4.8874352734
231 2 -18.5991929349 -14.5758810274 10.3307232375
232 2 -18.8125366803 -17.6388661155 10.3307232375
233 2 -17.0441214151 -17.5156920173 8.0350069166
234 2 -19.3767286692 -16.1689606206 8.0350069166
235 2 -17.0441214406 -14.8222291798 8.0350069166
236 2 -21.1451439599 -16.2921346748 10.3307232375
237 2 -18.5991929349 -17.5156920173 1.1478580916
238 2 -16.2665856808 -16.1689606206 1.1478580916
239 2 -19.5900724656 -16.0457865223 12.6264395584
240 2 -21.9226796942 -14.6990550816 12.6264395584
241 2 -19.5900724401 -13.3523236849 12.6264395584
242 2 -18.5991929094 -14.8222291798 1.1478580916
243 2 -21.1451439344 -16.0457865223 5.7392907334
244 2 -18.8125367058 -14.6990550816 5.7392907334
245 2 -22.1360234651 -14.5758810274 3.4435744125
246 2 -16.8307776697 -17.6388661155 3.4435744125
247 2 -19.5900724147 -16.2921347189 3.4435744125
248 2 -21.1451439599 -13.3523236849 5.7392907334
249 1 -20.3676082255 -14.6990550816 14.0703004193
250 1 -17.8216571495 -16.1689606206 16.3660166025
251 2 -18.5991929349 -17.5156920173 14.9221557416
252 2 -16.2665856808 -16.1689606206 14.9221557416
253 2 -18.5991929094 -14.8222291798 14.9221557416
254 2 -16.8307776697 -17.6388661155 17.2178720625
255 1 -20.3676081745 -11.7592440917 -18.0697275225
256 1 -20.3676081745 -11.7592440917 -14.0703004193
257 2 -21.1451439599 -10.1661644985 -17.2178720625
258 2 -19.5900724656 -10.412512651 -19.5135883834
259 2 -22.1360234906 -11.6360699935 -14.9221557416
260 2 -22.1360234651 -8.942607156 -14.9221557416
261 1 -22.9135592505 -10.2893385527 -6.5911460557
262 1 -22.913559225 -13.2291495866 -4.8874352734
263 1 -22.9135592505 -10.2893385527 -2.5917189525
264 1 -20.3676081745 -11.7592440917 -4.2954298725
265 1 -22.913559225 -13.2291495866 -1.9997135516
266 1 -20.3676081745 -11.7592440917 -0.2960027693
267 1 -22.913559225 -13.2291495866 -11.7745840984
268 1 -22.9135592505 -10.2893385527 -13.4782948807
269 1 -20.3676081745 -11.7592440917 -11.1825786975
270 1 -22.9135592505 -10.2893385527 -9.4788677775
271 1 -20.3676081745 -11.7592440917 -7.1831515943
272 1 -22.913559225 -13.2291495866 -8.8868623766
273 2 -21.1451439599 -10.1661644985 -3.4435744125
274 2 -21.3584877053 -13.2291495866 -3.4435744125
275 2 -19.5900724401 -13.1059754884 -5.7392907334
276 2 -21.9226796942 -11.7592440917 -5.7392907334
277 2 -19.5900724656 -10.412512651 -5.7392907334
278 2 -23.6910949849 -11.8824181459 -3.4435744125
279 2 -21.1451439599 -13.1059754884 -12.6264395584
280 2 -18.8125367058 -11.7592440917 -12.6264395584
281 2 -22.1360234906 -11.6360699935 -1.1478580916
282 2 -24.4686307192 -10.2893385527 -1.1478580916
283 2 -22.1360234651 -8.942607156 -1.1478580916
284 2 -21.1451439344 -10.412512651 -12.6264395584
285 2 -23.6910949594 -11.6360699935 -8.0350069166
286 2 -21.3584877308 -10.2893385527 -8.0350069166
287 2 -24.6819744901 -10.1661644985 -10.3307232375
288 2 -19.3767286947 -13.2291495866 -10.3307232375
289 2 -22.1360234397 -11.88241819 -10.3307232375
290 2 -23.6910949849 -8.942607156 -8.0350069166
291 1 -22.9135592505 -10.2893385527 7.1831515943
292 1 -22.913559225 -13.2291495866 8.8868623766
293 1 -22.9135592505 -10.2893385527 11.1825786975
294 1 -20.3676081745 -11.7592440917 9.4788677775
295 1 -22.913559225 -13.2291495866 11.7745840984
296 1 -20.3676081745 -11.7592440917 13.4782948807
297 1 -22.913559225 -13.2291495866 1.9997135516
298 1 -22.9135592505 -10.2893385527 0.2960027693
299 1 -20.3676081745 -11.7592440917 2.5917189525
300 1 -22.9135592505 -10.2893385527 4.2954298725
301 1 -20.3676081745 -11.7592440917 6.5911460557
302 1 -22.913559225 -13.2291495866 4.8874352734
303 2 -21.1451439599 -10.1661644985 10.3307232375
304 2 -21.3584877053 -13.2291495866 10.3307232375
305 2 -19.5900724401 -13.1059754884 8.0350069166
306 2 -21.9226796942 -11.7592440917 8.0350069166
307 2 -19.5900724656 -10.412512651 8.0350069166
308 2 -23.6910949849 -11.8824181459 10.3307232375
309 2 -21.1451439599 -13.1059754884 1.1478580916
310 2 -18.8125367058 -11.7592440917 1.1478580916
311 2 -22.1360234906 -11.6360699935 12.6264395584
312 2 -24.4686307192 -10.2893385527 12.6264395584
313 2 -22.1360234651 -8.942607156 12.6264395584
314 2 -21.1451439344 -10.412512651 1.1478580916
315 2 -23.6910949594 -11.6360699935 5.7392907334
316 2 -21.3584877308 -10.2893385527 5.7392907334
317 2 -24.6819744901 -10.1661644985 3.4435744125
318 2 -19.3767286947 -13.2291495866 3.4435744125
319 2 -22.1360234397 -11.88241819 3.4435744125
320 2 -23.6910949849 -8.942607156 5.7392907334
321 1 -22.9135592505 -10.2893385527 14.0703004193
322 1 -20.3676081745 -11.7592440917 16.3660166025
323 2 -21.1451439599 -13.1059754884 14.9221557416
324 2 -18.8125367058 -11.7592440917 14.9221557416
325 2 -21.1451439344 -10.412512651 14.9221557416
326 2 -19.3767286947 -13.2291495866 17.2178720625
327 1 -22.9135591995 -7.3495275628 -14.0703004193
328 2 -23.6910949849 -5.7564479696 -17.2178720625
329 2 -24.6819745156 -7.2263534646 -14.9221557416
330 2 -24.6819744901 -4.5328906271 -14.9221557416
331 1 -25.4595102755 -5.8796220238 -6.5911460557
332 1 -25.45951025 -8.8194330578 -4.8874352734
333 1 -25.4595102755 -5.8796220238 -2.5917189525
334 1 -22.9135591995 -7.3495275628 -4.2954298725
335 1 -25.45951025 -8.8194330578 -1.9997135516
336 1 -22.9135591995 -7.3495275628 -0.2960027693
337 1 -25.45951025 -8.8194330578 -11.7745840984
338 1 -25.4595102755 -5.8796220238 -13.4782948807
339 1 -22.9135591995 -7.3495275628 -11.1825786975
340 1 -25.4595102755 -5.8796220238 -9.4788677775
341 1 -22.9135591995 -7.3495275628 -7.1831515943
342 1 -25.45951025 -8.8194330578 -8.8868623766
343 2 -23.6910949849 -5.7564479696 -3.4435744125
344 2 -23.9044387303 -8.8194330578 -3.4435744125
345 2 -22.1360234651 -8.6962589595 -5.7392907334
346 2 -24.4686307192 -7.3495275628 -5.7392907334
347 2 -22.1360234906 -6.0027961221 -5.7392907334
348 2 -26.2370460099 -7.472701617 -3.4435744125
349 2 -23.6910949849 -8.6962589595 -12.6264395584
350 2 -21.3584877308 -7.3495275628 -12.6264395584
351 2 -24.6819745156 -7.2263534646 -1.1478580916
352 2 -27.0145817442 -5.8796220238 -1.1478580916
353 2 -24.6819744901 -4.5328906271 -1.1478580916
354 2 -23.6910949594 -6.0027961221 -12.6264395584
355 2 -26.2370459844 -7.2263534646 -8.0350069166
356 2 -23.9044387558 -5.8796220238 -8.0350069166
357 2 -27.2279255151 -5.7564479696 -10.3307232375
358 2 -21.9226797197 -8.8194330578 -10.3307232375
359 2 -24.6819744647 -7.4727016611 -10.3307232375
360 2 -26.2370460099 -4.5328906271 -8.0350069166
361 1 -25.4595102755 -5.8796220238 7.1831515943
362 1 -25.45951025 -8.8194330578 8.8868623766
363 1 -25.4595102755 -5.8796220238 11.1825786975
364 1 -22.9135591995 -7.3495275628 9.4788677775
365 1 -25.45951025 -8.8194330578 11.7745840984
366 1 -22.9135591995 -7.3495275628 13.4782948807
367 1 -25.45951025 -8.8194330578 1.9997135516
368 1 -25.4595102755 -5.8796220238 0.2960027693
369 1 -22.9135591995 -7.3495275628 2.5917189525
370 1 -25.4595102755 -5.8796220238 4.2954298725
371 1 -22.9135591995 -7.3495275628 6.5911460557
372 1 -25.45951025 -8.8194330578 4.8874352734
373 2 -23.6910949849 -5.7564479696 10.3307232375
374 2 -23.9044387303 -8.8194330578 10.3307232375
375 2 -22.1360234651 -8.6962589595 8.0350069166
376 2 -24.4686307192 -7.3495275628 8.0350069166
377 2 -22.1360234906 -6.0027961221 8.0350069166
378 2 -26.2370460099 -7.472701617 10.3307232375
379 2 -23.6910949849 -8.6962589595 1.1478580916
380 2 -21.3584877308 -7.3495275628 1.1478580916
381 2 -24.6819745156 -7.2263534646 12.6264395584
382 2 -24.6819744901 -4.5328906271 12.6264395584
383 2 -23.6910949594 -6.0027961221 1.1478580916
384 2 -26.2370459844 -7.2263534646 5.7392907334
385 2 -23.9044387558 -5.8796220238 5.7392907334
386 2 -27.2279255151 -5.7564479696 3.4435744125
387 2 -21.9226797197 -8.8194330578 3.4435744125
388 2 -24.6819744647 -7.4727016611 3.4435744125
389 2 -26.2370460099 -4.5328906271 5.7392907334
390 1 -25.4595102755 -5.8796220238 14.0703004193
391 1 -22.9135591995 -7.3495275628 16.3660166025
392 2 -23.6910949849 -8.6962589595 14.9221557416
393 2 -21.3584877308 -7.3495275628 14.9221557416
394 2 -23.6910949594 -6.0027961221 14.9221557416
395 2 -21.9226797197 -8.8194330578 17.2178720625
396 1 -25.4595102245 -2.939811034 -14.0703004193
397 1 -28.0054613005 -1.4699054949 -6.5911460557
398 1 -28.005461275 -4.4097165289 -4.8874352734
399 1 -28.0054613005 -1.4699054949 -2.5917189525
400 1 -25.4595102245 -2.939811034 -4.2954298725
401 1 -28.005461275 -4.4097165289 -1.9997135516
402 1 -25.4595102245 -2.939811034 -0.2960027693
403 1 -25.4595102245 -2.939811034 -11.1825786975
404 1 -28.0054613005 -1.4699054949 -9.4788677775
405 1 -25.4595102245 -2.939811034 -7.1831515943
406 1 -28.005461275 -4.4097165289 -8.8868623766
407 2 -26.2370460099 -1.3467314408 -3.4435744125
408 2 -26.4503897553 -4.4097165289 -3.4435744125
409 2 -24.6819744901 -4.2865424306 -5.7392907334
410 2 -27.0145817442 -2.939811034 -5.7392907334
411 2 -24.6819745156 -1.5930795932 -5.7392907334
412 2 -28.7829970349 -3.0629850881 -3.4435744125
413 2 -26.2370460099 -4.2865424306 -12.6264395584
414 2 -23.9044387558 -2.939811034 -12.6264395584
415 2 -27.2279255406 -2.8166369357 -1.1478580916
416 2 -29.5605327692 -1.4699054949 -1.1478580916
417 2 -27.2279255151 -0.1231740983 -1.1478580916
418 2 -26.2370459844 -1.5930795932 -12.6264395584
419 2 -26.4503897808 -1.4699054949 -8.0350069166
420 2 -24.4686307447 -4.4097165289 -10.3307232375
421 2 -27.2279254897 -3.0629851322 -10.3307232375
422 2 -28.7829970349 -0.1231740983 -8.0350069166
423 1 -28.0054613005 -1.4699054949 7.1831515943
424 1 -28.005461275 -4.4097165289 8.8868623766
425 1 -25.4595102245 -2.939811034 9.4788677775
426 1 -25.4595102245 -2.939811034 13.4782948807
427 1 -28.005461275 -4.4097165289 1.9997135516
428 1 -28.0054613005 -1.4699054949 0.2960027693
429 1 -25.4595102245 -2.939811034 2.5917189525
430 1 -28.0054613005 -1.4699054949 4.2954298725
431 1 -25.4595102245 -2.939811034 6.5911460557
432 1 -28.005461275 -4.4097165289 4.8874352734
433 2 -26.2370460099 -1.3467314408 10.3307232375
434 2 -26.4503897553 -4.4097165289 10.3307232375
435 2 -24.6819744901 -4.2865424306 8.0350069166
436 2 -27.0145817442 -2.939811034 8.0350069166
437 2 -24.6819745156 -1.5930795932 8.0350069166
438 2 -26.2370460099 -4.2865424306 1.1478580916
439 2 -23.9044387558 -2.939811034 1.1478580916
440 2 -26.2370459844 -1.5930795932 1.1478580916
441 2 -28.7829970094 -2.8166369357 5.7392907334
442 2 -26.4503897808 -1.4699054949 5.7392907334
443 2 -24.4686307447 -4.4097165289 3.4435744125
444 2 -27.2279254897 -3.0629851322 3.4435744125
445 2 -28.7829970349 -0.1231740983 5.7392907334
446 2 -23.9044387558 -2.939811034 14.9221557416
447 1 -28.0054612495 1.4699054949 -4.2954298725
448 1 -28.0054612495 1.4699054949 -0.2960027693
449 1 -28.0054612495 1.4699054949 -7.1831515943
450 2 -28.7829970349 3.0629850881 -3.4435744125
451 2 -28.9963407803 0.0 -3.4435744125
452 2 -27.2279255151 0.1231740983 -5.7392907334
453 2 -27.2279255406 2.8166369357 -5.7392907334
454 2 -26.4503897808 1.4699054949 -12.6264395584
455 2 -29.7738765656 1.5930795932 -1.1478580916
456 2 -27.0145817697 0.0 -10.3307232375
457 1 -28.0054612495 1.4699054949 9.4788677775
458 1 -28.0054612495 1.4699054949 2.5917189525
459 1 -28.0054612495 1.4699054949 6.5911460557
460 2 -27.2279255151 0.1231740983 8.0350069166
461 2 -27.2279255406 2.8166369357 8.0350069166
462 2 -28.7829970349 0.1231740983 1.1478580916
463 2 -26.4503897808 1.4699054949 1.1478580916
464 2 -28.7829970094 2.8166369357 1.1478580916
465 2 -28.9963408058 2.939811034 5.7392907334
466 2 -27.0145817697 0.0 3.4435744125
467 2 -28.9963408058 5.8796220238 1.1478580916
468 1 -7.6378531005 -27.9282046682 -6.5911460557
469 1 -7.6378531005 -27.9282046682 -2.5917189525
470 1 -5.0919020245 -29.3981102072 -0.2960027693
471 2 -5.8694378099 -27.8050306141 -3.4435744125
472 2 -4.3143663156 -28.0513787665 -5.7392907334
473 2 -9.1929245692 -27.9282046682 -1.1478580916
474 2 -6.8603173151 -26.5814732716 -1.1478580916
475 2 -6.0827815808 -27.9282046682 -8.0350069166
476 2 -8.4153888349 -26.5814732716 -8.0350069166
477 1 -7.6378531005 -27.9282046682 7.1831515943
478 1 -7.6378531005 -27.9282046682 0.2960027693
479 1 -7.6378531005 -27.9282046682 4.2954298725
480 2 -4.3143663156 -28.0513787665 8.0350069166
481 2 -3.5368305558 -29.3981102072 1.1478580916
482 2 -5.8694377844 -28.0513787665 1.1478580916
483 2 -6.0827815808 -27.9282046682 5.7392907334
484 2 -9.4062683401 -27.8050306141 3.4435744125
485 2 -8.4153888349 -26.5814732716 5.7392907334
486 1 -7.6378530495 -24.9883936784 -14.0703004193
487 2 -9.4062683401 -22.1717567427 -14.9221557416
488 1 -10.1838041255 -23.5184881393 -6.5911460557
489 1 -10.1838041 -26.4582991733 -4.8874352734
490 1 -10.1838041255 -23.5184881393 -2.5917189525
491 1 -7.6378530495 -24.9883936784 -4.2954298725
492 1 -10.1838041 -26.4582991733 -1.9997135516
493 1 -7.6378530495 -24.9883936784 -0.2960027693
494 1 -10.1838041255 -23.5184881393 -13.4782948807
495 1 -7.6378530495 -24.9883936784 -11.1825786975
496 1 -10.1838041255 -23.5184881393 -9.4788677775
497 1 -7.6378530495 -24.9883936784 -7.1831515943
498 1 -10.1838041 -26.4582991733 -8.8868623766
499 2 -8.4153888349 -23.3953140852 -3.4435744125
500 2 -8.6287325803 -26.4582991733 -3.4435744125
501 2 -6.8603173151 -26.335125075 -5.7392907334
502 2 -9.1929245692 -24.9883936784 -5.7392907334
503 2 -6.8603173406 -23.6416622376 -5.7392907334
504 2 -10.9613398599 -25.1115677325 -3.4435744125
505 2 -6.0827815808 -24.9883936784 -12.6264395584
506 2 -9.4062683656 -24.8652195801 -1.1478580916
507 2 -11.7388755942 -23.5184881393 -1.1478580916
508 2 -9.4062683401 -22.1717567427 -1.1478580916
509 2 -8.4153888094 -23.6416622376 -12.6264395584
510 2 -10.9613398344 -24.8652195801 -8.0350069166
511 2 -8.6287326058 -23.5184881393 -8.0350069166
512 2 -11.9522193651 -23.3953140852 -10.3307232375
513 2 -6.6469735697 -26.4582991733 -10.3307232375
514 2 -9.4062683147 -25.1115677766 -10.3307232375
515 2 -10.9613398599 -22.1717567427 -8.0350069166
516 1 -10.1838041255 -23.5184881393 7.1831515943
517 1 -10.1838041 -26.4582991733 8.8868623766
518 1 -10.1838041255 -23.5184881393 11.1825786975
519 1 -7.6378530495 -24.9883936784 9.4788677775
520 1 -7.6378530495 -24.9883936784 13.4782948807
521 1 -10.1838041 -26.4582991733 1.9997135516
522 1 -10.1838041255 -23.5184881393 0.2960027693
523 1 -7.6378530495 -24.9883936784 2.5917189525
524 1 -10.1838041255 -23.5184881393 4.2954298725
525 1 -7.6378530495 -24.9883936784 6.5911460557
526 1 -10.1838041 -26.4582991733 4.8874352734
527 2 -8.4153888349 -23.3953140852 10.3307232375
528 2 -8.6287325803 -26.4582991733 10.3307232375
529 2 -6.8603173151 -26.335125075 8.0350069166
530 2 -9.1929245692 -24.9883936784 8.0350069166
531 2 -6.8603173406 -23.6416622376 8.0350069166
532 2 -10.9613398599 -25.1115677325 10.3307232375
533 2 -8.4153888349 -26.335125075 1.1478580916
534 2 -6.0827815808 -24.9883936784 1.1478580916
535 2 -9.4062683656 -24.8652195801 12.6264395584
536 2 -11.7388755942 -23.5184881393 12.6264395584
537 2 -9.4062683401 -22.1717567427 12.6264395584
538 2 -8.4153888094 -23.6416622376 1.1478580916
539 2 -10.9613398344 -24.8652195801 5.7392907334
540 2 -8.6287326058 -23.5184881393 5.7392907334
541 2 -11.9522193651 -23.3953140852 3.4435744125
542 2 -6.6469735697 -26.4582991733 3.4435744125
543 2 -9.4062683147 -25.1115677766 3.4435744125
544 2 -10.9613398599 -22.1717567427 5.7392907334
545 1 -10.1838041255 -23.5184881393 14.0703004193
546 2 -6.0827815808 -24.9883936784 14.9221557416
547 2 -8.4153888094 -23.6416622376 14.9221557416
548 1 -12.7297551505 -19.1087716105 -16.3660166025
549 1 -10.1838040745 -20.5786771495 -18.0697275225
550 1 -10.1838040745 -20.5786771495 -14.0703004193
551 2 -10.9613398599 -18.9855975563 -17.2178720625
552 2 -9.4062683656 -19.2319457087 -19.5135883834
553 2 -11.9522193906 -20.4555030512 -14.9221557416
554 2 -14.2848266192 -19.1087716105 -14.9221557416
555 2 -11.9522193651 -17.7620402138 -14.9221557416
556 1 -12.7297551505 -19.1087716105 -6.5911460557
557 1 -12.729755125 -22.0485826444 -4.8874352734
558 1 -12.7297551505 -19.1087716105 -2.5917189525
559 1 -10.1838040745 -20.5786771495 -4.2954298725
560 1 -12.729755125 -22.0485826444 -1.9997135516
561 1 -10.1838040745 -20.5786771495 -0.2960027693
562 1 -12.729755125 -22.0485826444 -11.7745840984
563 1 -12.7297551505 -19.1087716105 -13.4782948807
564 1 -10.1838040745 -20.5786771495 -11.1825786975
565 1 -12.7297551505 -19.1087716105 -9.4788677775
566 1 -10.1838040745 -20.5786771495 -7.1831515943
567 1 -12.729755125 -22.0485826444 -8.8868623766
568 2 -10.9613398599 -18.9855975563 -3.4435744125
569 2 -11.1746836053 -22.0485826444 -3.4435744125
570 2 -9.4062683401 -21.9254085461 -5.7392907334
571 2 -11.7388755942 -20.5786771495 -5.7392907334
572 2 -9.4062683656 -19.2319457087 -5.7392907334
573 2 -13.5072908849 -20.7018512036 -3.4435744125
574 2 -10.9613398599 -21.9254085461 -12.6264395584
575 2 -8.6287326058 -20.5786771495 -12.6264395584
576 2 -11.9522193906 -20.4555030512 -1.1478580916
577 2 -14.2848266192 -19.1087716105 -1.1478580916
578 2 -11.9522193651 -17.7620402138 -1.1478580916
579 2 -10.9613398344 -19.2319457087 -12.6264395584
580 2 -13.5072908594 -20.4555030512 -8.0350069166
581 2 -11.1746836308 -19.1087716105 -8.0350069166
582 2 -14.4981703901 -18.9855975563 -10.3307232375
583 2 -9.1929245947 -22.0485826444 -10.3307232375
584 2 -11.9522193397 -20.7018512477 -10.3307232375
585 2 -13.5072908849 -17.7620402138 -8.0350069166
586 1 -12.7297551505 -19.1087716105 7.1831515943
587 1 -12.729755125 -22.0485826444 8.8868623766
588 1 -12.7297551505 -19.1087716105 11.1825786975
589 1 -10.1838040745 -20.5786771495 9.4788677775
590 1 -12.729755125 -22.0485826444 11.7745840984
591 1 -10.1838040745 -20.5786771495 13.4782948807
592 1 -12.729755125 -22.0485826444 1.9997135516
593 1 -12.7297551505 -19.1087716105 0.2960027693
594 1 -10.1838040745 -20.5786771495 2.5917189525
595 1 -12.7297551505 -19.1087716105 4.2954298725
596 1 -10.1838040745 -20.5786771495 6.5911460557
597 1 -12.729755125 -22.0485826444 4.8874352734
598 2 -10.9613398599 -18.9855975563 10.3307232375
599 2 -11.1746836053 -22.0485826444 10.3307232375
600 2 -9.4062683401 -21.9254085461 8.0350069166
601 2 -11.7388755942 -20.5786771495 8.0350069166
602 2 -9.4062683656 -19.2319457087 8.0350069166
603 2 -13.5072908849 -20.7018512036 10.3307232375
604 2 -10.9613398599 -21.9254085461 1.1478580916
605 2 -8.6287326058 -20.5786771495 1.1478580916
606 2 -11.9522193906 -20.4555030512 12.6264395584
607 2 -14.2848266192 -19.1087716105 12.6264395584
608 2 -11.9522193651 -17.7620402138 12.6264395584
609 2 -10.9613398344 -19.2319457087 1.1478580916