# LAMMPS data file written by Ovito 3.10.6

47250 atoms
2 atom types

-17.821657175 58.556873575 xlo xhi
-30.8680157022 35.2777322311 ylo yhi
-41.32289295 55.0971906 zlo zhi
-38.189265375 0.0 0.0 xy xz yz

Masses

1 55.845  # Fe3+
2 15.9994  # O2-

Atoms  # atomic

1 1 -17.8216572005 -27.9282046682 -34.1397413557
2 1 -17.821657175 -30.8680157022 -32.4360305734
3 1 -17.8216572005 -27.9282046682 -30.1403142525
4 1 -15.2757061245 -29.3981102072 -31.8440251725
5 1 -17.821657175 -30.8680157022 -29.5483088516
6 1 -15.2757061245 -29.3981102072 -27.8445980693
7 1 -17.821657175 -30.8680157022 -39.3231793984
8 1 -17.8216572005 -27.9282046682 -41.0268901807
9 1 -15.2757061245 -29.3981102072 -38.7311739975
10 1 -17.8216572005 -27.9282046682 -37.0274630775
11 1 -15.2757061245 -29.3981102072 -34.7317468943
12 1 -17.821657175 -30.8680157022 -36.4354576766
13 2 -16.0532419099 -27.8050306141 -30.9921697125
14 2 -16.2665856553 -30.8680157022 -30.9921697125
15 2 -14.4981703901 -30.7448416039 -33.2878860334
16 2 -16.8307776442 -29.3981102072 -33.2878860334
17 2 -14.4981704156 -28.0513787665 -33.2878860334
18 2 -18.5991929349 -29.5212842614 -30.9921697125
19 2 -16.0532419099 -30.7448416039 -40.1750348584
20 2 -13.7206346558 -29.3981102072 -40.1750348584
21 2 -17.0441214406 -29.274936109 -28.6964533916
22 2 -19.3767286692 -27.9282046682 -28.6964533916
23 2 -17.0441214151 -26.5814732716 -28.6964533916
24 2 -16.0532418844 -28.0513787665 -40.1750348584
25 2 -18.5991929094 -29.274936109 -35.5836022166
26 2 -16.2665856808 -27.9282046682 -35.5836022166
27 2 -19.5900724401 -27.8050306141 -37.8793185375
28 2 -14.2848266447 -30.8680157022 -37.8793185375
29 2 -17.0441213897 -29.5212843055 -37.8793185375
30 2 -18.5991929349 -26.5814732716 -35.5836022166
31 1 -17.8216572005 -27.9282046682 -20.3654437057
32 1 -17.821657175 -30.8680157022 -18.6617329234
33 1 -17.8216572005 -27.9282046682 -16.3660166025
34 1 -15.2757061245 -29.3981102072 -18.0697275225
35 1 -17.821657175 -30.8680157022 -15.7740112016
36 1 -15.2757061245 -29.3981102072 -14.0703004193
37 1 -17.821657175 -30.8680157022 -25.5488817484
38 1 -17.8216572005 -27.9282046682 -27.2525925307
39 1 -15.2757061245 -29.3981102072 -24.9568763475
40 1 -17.8216572005 -27.9282046682 -23.2531654275
41 1 -15.2757061245 -29.3981102072 -20.9574492443
42 1 -17.821657175 -30.8680157022 -22.6611600266
43 2 -16.0532419099 -27.8050306141 -17.2178720625
44 2 -16.2665856553 -30.8680157022 -17.2178720625
45 2 -14.4981703901 -30.7448416039 -19.5135883834
46 2 -16.8307776442 -29.3981102072 -19.5135883834
47 2 -14.4981704156 -28.0513787665 -19.5135883834
48 2 -18.5991929349 -29.5212842614 -17.2178720625
49 2 -16.0532419099 -30.7448416039 -26.4007372084
50 2 -13.7206346558 -29.3981102072 -26.4007372084
51 2 -17.0441214406 -29.274936109 -14.9221557416
52 2 -19.3767286692 -27.9282046682 -14.9221557416
53 2 -17.0441214151 -26.5814732716 -14.9221557416
54 2 -16.0532418844 -28.0513787665 -26.4007372084
55 2 -18.5991929094 -29.274936109 -21.8093045666
56 2 -16.2665856808 -27.9282046682 -21.8093045666
57 2 -19.5900724401 -27.8050306141 -24.1050208875
58 2 -14.2848266447 -30.8680157022 -24.1050208875
59 2 -17.0441213897 -29.5212843055 -24.1050208875
60 2 -18.5991929349 -26.5814732716 -21.8093045666
61 1 -17.8216572005 -27.9282046682 -6.5911460557
62 1 -17.821657175 -30.8680157022 -4.8874352734
63 1 -17.8216572005 -27.9282046682 -2.5917189525
64 1 -15.2757061245 -29.3981102072 -4.2954298725
65 1 -17.821657175 -30.8680157022 -1.9997135516
66 1 -15.2757061245 -29.3981102072 -0.2960027693
67 1 -17.821657175 -30.8680157022 -11.7745840984
68 1 -17.8216572005 -27.9282046682 -13.4782948807
69 1 -15.2757061245 -29.3981102072 -11.1825786975
70 1 -17.8216572005 -27.9282046682 -9.4788677775
71 1 -15.2757061245 -29.3981102072 -7.1831515943
72 1 -17.821657175 -30.8680157022 -8.8868623766
73 2 -16.0532419099 -27.8050306141 -3.4435744125
74 2 -16.2665856553 -30.8680157022 -3.4435744125
75 2 -14.4981703901 -30.7448416039 -5.7392907334
76 2 -16.8307776442 -29.3981102072 -5.7392907334
77 2 -14.4981704156 -28.0513787665 -5.7392907334
78 2 -18.5991929349 -29.5212842614 -3.4435744125
79 2 -16.0532419099 -30.7448416039 -12.6264395584
80 2 -13.7206346558 -29.3981102072 -12.6264395584
81 2 -17.0441214406 -29.274936109 -1.1478580916
82 2 -19.3767286692 -27.9282046682 -1.1478580916
83 2 -17.0441214151 -26.5814732716 -1.1478580916
84 2 -16.0532418844 -28.0513787665 -12.6264395584
85 2 -18.5991929094 -29.274936109 -8.0350069166
86 2 -16.2665856808 -27.9282046682 -8.0350069166
87 2 -19.5900724401 -27.8050306141 -10.3307232375
88 2 -14.2848266447 -30.8680157022 -10.3307232375
89 2 -17.0441213897 -29.5212843055 -10.3307232375
90 2 -18.5991929349 -26.5814732716 -8.0350069166
91 1 -17.8216572005 -27.9282046682 7.1831515943
92 1 -17.821657175 -30.8680157022 8.8868623766
93 1 -17.8216572005 -27.9282046682 11.1825786975
94 1 -15.2757061245 -29.3981102072 9.4788677775
95 1 -17.821657175 -30.8680157022 11.7745840984
96 1 -15.2757061245 -29.3981102072 13.4782948807
97 1 -17.821657175 -30.8680157022 1.9997135516
98 1 -17.8216572005 -27.9282046682 0.2960027693
99 1 -15.2757061245 -29.3981102072 2.5917189525
100 1 -17.8216572005 -27.9282046682 4.2954298725
101 1 -15.2757061245 -29.3981102072 6.5911460557
102 1 -17.821657175 -30.8680157022 4.8874352734
103 2 -16.0532419099 -27.8050306141 10.3307232375
104 2 -16.2665856553 -30.8680157022 10.3307232375
105 2 -14.4981703901 -30.7448416039 8.0350069166
106 2 -16.8307776442 -29.3981102072 8.0350069166
107 2 -14.4981704156 -28.0513787665 8.0350069166
108 2 -18.5991929349 -29.5212842614 10.3307232375
109 2 -16.0532419099 -30.7448416039 1.1478580916
110 2 -13.7206346558 -29.3981102072 1.1478580916
111 2 -17.0441214406 -29.274936109 12.6264395584
112 2 -19.3767286692 -27.9282046682 12.6264395584
113 2 -17.0441214151 -26.5814732716 12.6264395584
114 2 -16.0532418844 -28.0513787665 1.1478580916
115 2 -18.5991929094 -29.274936109 5.7392907334
116 2 -16.2665856808 -27.9282046682 5.7392907334
117 2 -19.5900724401 -27.8050306141 3.4435744125
118 2 -14.2848266447 -30.8680157022 3.4435744125
119 2 -17.0441213897 -29.5212843055 3.4435744125
120 2 -18.5991929349 -26.5814732716 5.7392907334
121 1 -17.8216572005 -27.9282046682 20.9574492443
122 1 -17.821657175 -30.8680157022 22.6611600266
123 1 -17.8216572005 -27.9282046682 24.9568763475
124 1 -15.2757061245 -29.3981102072 23.2531654275
125 1 -17.821657175 -30.8680157022 25.5488817484
126 1 -15.2757061245 -29.3981102072 27.2525925307
127 1 -17.821657175 -30.8680157022 15.7740112016
128 1 -17.8216572005 -27.9282046682 14.0703004193
129 1 -15.2757061245 -29.3981102072 16.3660166025
130 1 -17.8216572005 -27.9282046682 18.0697275225
131 1 -15.2757061245 -29.3981102072 20.3654437057
132 1 -17.821657175 -30.8680157022 18.6617329234
133 2 -16.0532419099 -27.8050306141 24.1050208875
134 2 -16.2665856553 -30.8680157022 24.1050208875
135 2 -14.4981703901 -30.7448416039 21.8093045666
136 2 -16.8307776442 -29.3981102072 21.8093045666
137 2 -14.4981704156 -28.0513787665 21.8093045666
138 2 -18.5991929349 -29.5212842614 24.1050208875
139 2 -16.0532419099 -30.7448416039 14.9221557416
140 2 -13.7206346558 -29.3981102072 14.9221557416
141 2 -17.0441214406 -29.274936109 26.4007372084
142 2 -19.3767286692 -27.9282046682 26.4007372084
143 2 -17.0441214151 -26.5814732716 26.4007372084
144 2 -16.0532418844 -28.0513787665 14.9221557416
145 2 -18.5991929094 -29.274936109 19.5135883834
146 2 -16.2665856808 -27.9282046682 19.5135883834
147 2 -19.5900724401 -27.8050306141 17.2178720625
148 2 -14.2848266447 -30.8680157022 17.2178720625
149 2 -17.0441213897 -29.5212843055 17.2178720625
150 2 -18.5991929349 -26.5814732716 19.5135883834
151 1 -17.8216572005 -27.9282046682 34.7317468943
152 1 -17.821657175 -30.8680157022 36.4354576766
153 1 -17.8216572005 -27.9282046682 38.7311739975
154 1 -15.2757061245 -29.3981102072 37.0274630775
155 1 -17.821657175 -30.8680157022 39.3231793984
156 1 -15.2757061245 -29.3981102072 41.0268901807
157 1 -17.821657175 -30.8680157022 29.5483088516
158 1 -17.8216572005 -27.9282046682 27.8445980693
159 1 -15.2757061245 -29.3981102072 30.1403142525
160 1 -17.8216572005 -27.9282046682 31.8440251725
161 1 -15.2757061245 -29.3981102072 34.1397413557
162 1 -17.821657175 -30.8680157022 32.4360305734
163 2 -16.0532419099 -27.8050306141 37.8793185375
164 2 -16.2665856553 -30.8680157022 37.8793185375
165 2 -14.4981703901 -30.7448416039 35.5836022166
166 2 -16.8307776442 -29.3981102072 35.5836022166
167 2 -14.4981704156 -28.0513787665 35.5836022166
168 2 -18.5991929349 -29.5212842614 37.8793185375
169 2 -16.0532419099 -30.7448416039 28.6964533916
170 2 -13.7206346558 -29.3981102072 28.6964533916
171 2 -17.0441214406 -29.274936109 40.1750348584
172 2 -19.3767286692 -27.9282046682 40.1750348584
173 2 -17.0441214151 -26.5814732716 40.1750348584
174 2 -16.0532418844 -28.0513787665 28.6964533916
175 2 -18.5991929094 -29.274936109 33.2878860334
176 2 -16.2665856808 -27.9282046682 33.2878860334
177 2 -19.5900724401 -27.8050306141 30.9921697125
178 2 -14.2848266447 -30.8680157022 30.9921697125
179 2 -17.0441213897 -29.5212843055 30.9921697125
180 2 -18.5991929349 -26.5814732716 33.2878860334
181 1 -17.8216572005 -27.9282046682 48.5060445443
182 1 -17.821657175 -30.8680157022 50.2097553266
183 1 -17.8216572005 -27.9282046682 52.5054716475
184 1 -15.2757061245 -29.3981102072 50.8017607275
185 1 -17.821657175 -30.8680157022 53.0974770484
186 1 -15.2757061245 -29.3981102072 54.8011878307
187 1 -17.821657175 -30.8680157022 43.3226065016
188 1 -17.8216572005 -27.9282046682 41.6188957193
189 1 -15.2757061245 -29.3981102072 43.9146119025
190 1 -17.8216572005 -27.9282046682 45.6183228225
191 1 -15.2757061245 -29.3981102072 47.9140390057
192 1 -17.821657175 -30.8680157022 46.2103282234
193 2 -16.0532419099 -27.8050306141 51.6536161875
194 2 -16.2665856553 -30.8680157022 51.6536161875
195 2 -14.4981703901 -30.7448416039 49.3578998666
196 2 -16.8307776442 -29.3981102072 49.3578998666
197 2 -14.4981704156 -28.0513787665 49.3578998666
198 2 -18.5991929349 -29.5212842614 51.6536161875
199 2 -16.0532419099 -30.7448416039 42.4707510416
200 2 -13.7206346558 -29.3981102072 42.4707510416
201 2 -17.0441214406 -29.274936109 53.9493325084
202 2 -19.3767286692 -27.9282046682 53.9493325084
203 2 -17.0441214151 -26.5814732716 53.9493325084
204 2 -16.0532418844 -28.0513787665 42.4707510416
205 2 -18.5991929094 -29.274936109 47.0621836834
206 2 -16.2665856808 -27.9282046682 47.0621836834
207 2 -19.5900724401 -27.8050306141 44.7664673625
208 2 -14.2848266447 -30.8680157022 44.7664673625
209 2 -17.0441213897 -29.5212843055 44.7664673625
210 2 -18.5991929349 -26.5814732716 47.0621836834
211 1 -20.3676082255 -23.5184881393 -34.1397413557
212 1 -20.3676082 -26.4582991733 -32.4360305734
213 1 -20.3676082255 -23.5184881393 -30.1403142525
214 1 -17.8216571495 -24.9883936784 -31.8440251725
215 1 -20.3676082 -26.4582991733 -29.5483088516
216 1 -17.8216571495 -24.9883936784 -27.8445980693
217 1 -20.3676082 -26.4582991733 -39.3231793984
218 1 -20.3676082255 -23.5184881393 -41.0268901807
219 1 -17.8216571495 -24.9883936784 -38.7311739975
220 1 -20.3676082255 -23.5184881393 -37.0274630775
221 1 -17.8216571495 -24.9883936784 -34.7317468943
222 1 -20.3676082 -26.4582991733 -36.4354576766
223 2 -18.5991929349 -23.3953140852 -30.9921697125
224 2 -18.8125366803 -26.4582991733 -30.9921697125
225 2 -17.0441214151 -26.335125075 -33.2878860334
226 2 -19.3767286692 -24.9883936784 -33.2878860334
227 2 -17.0441214406 -23.6416622376 -33.2878860334
228 2 -21.1451439599 -25.1115677325 -30.9921697125
229 2 -18.5991929349 -26.335125075 -40.1750348584
230 2 -16.2665856808 -24.9883936784 -40.1750348584
231 2 -19.5900724656 -24.8652195801 -28.6964533916
232 2 -21.9226796942 -23.5184881393 -28.6964533916
233 2 -19.5900724401 -22.1717567427 -28.6964533916
234 2 -18.5991929094 -23.6416622376 -40.1750348584
235 2 -21.1451439344 -24.8652195801 -35.5836022166
236 2 -18.8125367058 -23.5184881393 -35.5836022166
237 2 -22.1360234651 -23.3953140852 -37.8793185375
238 2 -16.8307776697 -26.4582991733 -37.8793185375
239 2 -19.5900724147 -25.1115677766 -37.8793185375
240 2 -21.1451439599 -22.1717567427 -35.5836022166
241 1 -20.3676082255 -23.5184881393 -20.3654437057
242 1 -20.3676082 -26.4582991733 -18.6617329234
243 1 -20.3676082255 -23.5184881393 -16.3660166025
244 1 -17.8216571495 -24.9883936784 -18.0697275225
245 1 -20.3676082 -26.4582991733 -15.7740112016
246 1 -17.8216571495 -24.9883936784 -14.0703004193
247 1 -20.3676082 -26.4582991733 -25.5488817484
248 1 -20.3676082255 -23.5184881393 -27.2525925307
249 1 -17.8216571495 -24.9883936784 -24.9568763475
250 1 -20.3676082255 -23.5184881393 -23.2531654275
251 1 -17.8216571495 -24.9883936784 -20.9574492443
252 1 -20.3676082 -26.4582991733 -22.6611600266
253 2 -18.5991929349 -23.3953140852 -17.2178720625
254 2 -18.8125366803 -26.4582991733 -17.2178720625
255 2 -17.0441214151 -26.335125075 -19.5135883834
256 2 -19.3767286692 -24.9883936784 -19.5135883834
257 2 -17.0441214406 -23.6416622376 -19.5135883834
258 2 -21.1451439599 -25.1115677325 -17.2178720625
259 2 -18.5991929349 -26.335125075 -26.4007372084
260 2 -16.2665856808 -24.9883936784 -26.4007372084
261 2 -19.5900724656 -24.8652195801 -14.9221557416
262 2 -21.9226796942 -23.5184881393 -14.9221557416
263 2 -19.5900724401 -22.1717567427 -14.9221557416
264 2 -18.5991929094 -23.6416622376 -26.4007372084
265 2 -21.1451439344 -24.8652195801 -21.8093045666
266 2 -18.8125367058 -23.5184881393 -21.8093045666
267 2 -22.1360234651 -23.3953140852 -24.1050208875
268 2 -16.8307776697 -26.4582991733 -24.1050208875
269 2 -19.5900724147 -25.1115677766 -24.1050208875
270 2 -21.1451439599 -22.1717567427 -21.8093045666
271 1 -20.3676082255 -23.5184881393 -6.5911460557
272 1 -20.3676082 -26.4582991733 -4.8874352734
273 1 -20.3676082255 -23.5184881393 -2.5917189525
274 1 -17.8216571495 -24.9883936784 -4.2954298725
275 1 -20.3676082 -26.4582991733 -1.9997135516
276 1 -17.8216571495 -24.9883936784 -0.2960027693
277 1 -20.3676082 -26.4582991733 -11.7745840984
278 1 -20.3676082255 -23.5184881393 -13.4782948807
279 1 -17.8216571495 -24.9883936784 -11.1825786975
280 1 -20.3676082255 -23.5184881393 -9.4788677775
281 1 -17.8216571495 -24.9883936784 -7.1831515943
282 1 -20.3676082 -26.4582991733 -8.8868623766
283 2 -18.5991929349 -23.3953140852 -3.4435744125
284 2 -18.8125366803 -26.4582991733 -3.4435744125
285 2 -17.0441214151 -26.335125075 -5.7392907334
286 2 -19.3767286692 -24.9883936784 -5.7392907334
287 2 -17.0441214406 -23.6416622376 -5.7392907334
288 2 -21.1451439599 -25.1115677325 -3.4435744125
289 2 -18.5991929349 -26.335125075 -12.6264395584
290 2 -16.2665856808 -24.9883936784 -12.6264395584
291 2 -19.5900724656 -24.8652195801 -1.1478580916
292 2 -21.9226796942 -23.5184881393 -1.1478580916
293 2 -19.5900724401 -22.1717567427 -1.1478580916
294 2 -18.5991929094 -23.6416622376 -12.6264395584
295 2 -21.1451439344 -24.8652195801 -8.0350069166
296 2 -18.8125367058 -23.5184881393 -8.0350069166
297 2 -22.1360234651 -23.3953140852 -10.3307232375
298 2 -16.8307776697 -26.4582991733 -10.3307232375
299 2 -19.5900724147 -25.1115677766 -10.3307232375
300 2 -21.1451439599 -22.1717567427 -8.0350069166
301 1 -20.3676082255 -23.5184881393 7.1831515943
302 1 -20.3676082 -26.4582991733 8.8868623766
303 1 -20.3676082255 -23.5184881393 11.1825786975
304 1 -17.8216571495 -24.9883936784 9.4788677775
305 1 -20.3676082 -26.4582991733 11.7745840984
306 1 -17.8216571495 -24.9883936784 13.4782948807
307 1 -20.3676082 -26.4582991733 1.9997135516
308 1 -20.3676082255 -23.5184881393 0.2960027693
309 1 -17.8216571495 -24.9883936784 2.5917189525
310 1 -20.3676082255 -23.5184881393 4.2954298725
311 1 -17.8216571495 -24.9883936784 6.5911460557
312 1 -20.3676082 -26.4582991733 4.8874352734
313 2 -18.5991929349 -23.3953140852 10.3307232375
314 2 -18.8125366803 -26.4582991733 10.3307232375
315 2 -17.0441214151 -26.335125075 8.0350069166
316 2 -19.3767286692 -24.9883936784 8.0350069166
317 2 -17.0441214406 -23.6416622376 8.0350069166
318 2 -21.1451439599 -25.1115677325 10.3307232375
319 2 -18.5991929349 -26.335125075 1.1478580916
320 2 -16.2665856808 -24.9883936784 1.1478580916
321 2 -19.5900724656 -24.8652195801 12.6264395584
322 2 -21.9226796942 -23.5184881393 12.6264395584
323 2 -19.5900724401 -22.1717567427 12.6264395584
324 2 -18.5991929094 -23.6416622376 1.1478580916
325 2 -21.1451439344 -24.8652195801 5.7392907334
326 2 -18.8125367058 -23.5184881393 5.7392907334
327 2 -22.1360234651 -23.3953140852 3.4435744125
328 2 -16.8307776697 -26.4582991733 3.4435744125
329 2 -19.5900724147 -25.1115677766 3.4435744125
330 2 -21.1451439599 -22.1717567427 5.7392907334
331 1 -20.3676082255 -23.5184881393 20.9574492443
332 1 -20.3676082 -26.4582991733 22.6611600266
333 1 -20.3676082255 -23.5184881393 24.9568763475
334 1 -17.8216571495 -24.9883936784 23.2531654275
335 1 -20.3676082 -26.4582991733 25.5488817484
336 1 -17.8216571495 -24.9883936784 27.2525925307
337 1 -20.3676082 -26.4582991733 15.7740112016
338 1 -20.3676082255 -23.5184881393 14.0703004193
339 1 -17.8216571495 -24.9883936784 16.3660166025
340 1 -20.3676082255 -23.5184881393 18.0697275225
341 1 -17.8216571495 -24.9883936784 20.3654437057
342 1 -20.3676082 -26.4582991733 18.6617329234
343 2 -18.5991929349 -23.3953140852 24.1050208875
344 2 -18.8125366803 -26.4582991733 24.1050208875
345 2 -17.0441214151 -26.335125075 21.8093045666
346 2 -19.3767286692 -24.9883936784 21.8093045666
347 2 -17.0441214406 -23.6416622376 21.8093045666
348 2 -21.1451439599 -25.1115677325 24.1050208875
349 2 -18.5991929349 -26.335125075 14.9221557416
350 2 -16.2665856808 -24.9883936784 14.9221557416
351 2 -19.5900724656 -24.8652195801 26.4007372084
352 2 -21.9226796942 -23.5184881393 26.4007372084
353 2 -19.5900724401 -22.1717567427 26.4007372084
354 2 -18.5991929094 -23.6416622376 14.9221557416
355 2 -21.1451439344 -24.8652195801 19.5135883834
356 2 -18.8125367058 -23.5184881393 19.5135883834
357 2 -22.1360234651 -23.3953140852 17.2178720625
358 2 -16.8307776697 -26.4582991733 17.2178720625
359 2 -19.5900724147 -25.1115677766 17.2178720625
360 2 -21.1451439599 -22.1717567427 19.5135883834
361 1 -20.3676082255 -23.5184881393 34.7317468943
362 1 -20.3676082 -26.4582991733 36.4354576766
363 1 -20.3676082255 -23.5184881393 38.7311739975
364 1 -17.8216571495 -24.9883936784 37.0274630775
365 1 -20.3676082 -26.4582991733 39.3231793984
366 1 -17.8216571495 -24.9883936784 41.0268901807
367 1 -20.3676082 -26.4582991733 29.5483088516
368 1 -20.3676082255 -23.5184881393 27.8445980693
369 1 -17.8216571495 -24.9883936784 30.1403142525
370 1 -20.3676082255 -23.5184881393 31.8440251725
371 1 -17.8216571495 -24.9883936784 34.1397413557
372 1 -20.3676082 -26.4582991733 32.4360305734
373 2 -18.5991929349 -23.3953140852 37.8793185375
374 2 -18.8125366803 -26.4582991733 37.8793185375
375 2 -17.0441214151 -26.335125075 35.5836022166
376 2 -19.3767286692 -24.9883936784 35.5836022166
377 2 -17.0441214406 -23.6416622376 35.5836022166
378 2 -21.1451439599 -25.1115677325 37.8793185375
379 2 -18.5991929349 -26.335125075 28.6964533916
380 2 -16.2665856808 -24.9883936784 28.6964533916
381 2 -19.5900724656 -24.8652195801 40.1750348584
382 2 -21.9226796942 -23.5184881393 40.1750348584
383 2 -19.5900724401 -22.1717567427 40.1750348584
384 2 -18.5991929094 -23.6416622376 28.6964533916
385 2 -21.1451439344 -24.8652195801 33.2878860334
386 2 -18.8125367058 -23.5184881393 33.2878860334
387 2 -22.1360234651 -23.3953140852 30.9921697125
388 2 -16.8307776697 -26.4582991733 30.9921697125
389 2 -19.5900724147 -25.1115677766 30.9921697125
390 2 -21.1451439599 -22.1717567427 33.2878860334
391 1 -20.3676082255 -23.5184881393 48.5060445443
392 1 -20.3676082 -26.4582991733 50.2097553266
393 1 -20.3676082255 -23.5184881393 52.5054716475
394 1 -17.8216571495 -24.9883936784 50.8017607275
395 1 -20.3676082 -26.4582991733 53.0974770484
396 1 -17.8216571495 -24.9883936784 54.8011878307
397 1 -20.3676082 -26.4582991733 43.3226065016
398 1 -20.3676082255 -23.5184881393 41.6188957193
399 1 -17.8216571495 -24.9883936784 43.9146119025
400 1 -20.3676082255 -23.5184881393 45.6183228225
401 1 -17.8216571495 -24.9883936784 47.9140390057
402 1 -20.3676082 -26.4582991733 46.2103282234
403 2 -18.5991929349 -23.3953140852 51.6536161875
404 2 -18.8125366803 -26.4582991733 51.6536161875
405 2 -17.0441214151 -26.335125075 49.3578998666
406 2 -19.3767286692 -24.9883936784 49.3578998666
407 2 -17.0441214406 -23.6416622376 49.3578998666
408 2 -21.1451439599 -25.1115677325 51.6536161875
409 2 -18.5991929349 -26.335125075 42.4707510416
410 2 -16.2665856808 -24.9883936784 42.4707510416
411 2 -19.5900724656 -24.8652195801 53.9493325084
412 2 -21.9226796942 -23.5184881393 53.9493325084
413 2 -19.5900724401 -22.1717567427 53.9493325084
414 2 -18.5991929094 -23.6416622376 42.4707510416
415 2 -21.1451439344 -24.8652195801 47.0621836834
416 2 -18.8125367058 -23.5184881393 47.0621836834
417 2 -22.1360234651 -23.3953140852 44.7664673625
418 2 -16.8307776697 -26.4582991733 44.7664673625
419 2 -19.5900724147 -25.1115677766 44.7664673625
420 2 -21.1451439599 -22.1717567427 47.0621836834
421 1 -22.9135592505 -19.1087716105 -34.1397413557
422 1 -22.913559225 -22.0485826444 -32.4360305734
423 1 -22.9135592505 -19.1087716105 -30.1403142525
424 1 -20.3676081745 -20.5786771495 -31.8440251725
425 1 -22.913559225 -22.0485826444 -29.5483088516
426 1 -20.3676081745 -20.5786771495 -27.8445980693
427 1 -22.913559225 -22.0485826444 -39.3231793984
428 1 -22.9135592505 -19.1087716105 -41.0268901807
429 1 -20.3676081745 -20.5786771495 -38.7311739975
430 1 -22.9135592505 -19.1087716105 -37.0274630775
431 1 -20.3676081745 -20.5786771495 -34.7317468943
432 1 -22.913559225 -22.0485826444 -36.4354576766
433 2 -21.1451439599 -18.9855975563 -30.9921697125
434 2 -21.3584877053 -22.0485826444 -30.9921697125
435 2 -19.5900724401 -21.9254085461 -33.2878860334
436 2 -21.9226796942 -20.5786771495 -33.2878860334
437 2 -19.5900724656 -19.2319457087 -33.2878860334
438 2 -23.6910949849 -20.7018512036 -30.9921697125
439 2 -21.1451439599 -21.9254085461 -40.1750348584
440 2 -18.8125367058 -20.5786771495 -40.1750348584
441 2 -22.1360234906 -20.4555030512 -28.6964533916
442 2 -24.4686307192 -19.1087716105 -28.6964533916
443 2 -22.1360234651 -17.7620402138 -28.6964533916
444 2 -21.1451439344 -19.2319457087 -40.1750348584
445 2 -23.6910949594 -20.4555030512 -35.5836022166
446 2 -21.3584877308 -19.1087716105 -35.5836022166
447 2 -24.6819744901 -18.9855975563 -37.8793185375
448 2 -19.3767286947 -22.0485826444 -37.8793185375
449 2 -22.1360234397 -20.7018512477 -37.8793185375
450 2 -23.6910949849 -17.7620402138 -35.5836022166
451 1 -22.9135592505 -19.1087716105 -20.3654437057
452 1 -22.913559225 -22.0485826444 -18.6617329234
453 1 -22.9135592505 -19.1087716105 -16.3660166025
454 1 -20.3676081745 -20.5786771495 -18.0697275225
455 1 -22.913559225 -22.0485826444 -15.7740112016
456 1 -20.3676081745 -20.5786771495 -14.0703004193
457 1 -22.913559225 -22.0485826444 -25.5488817484
458 1 -22.9135592505 -19.1087716105 -27.2525925307
459 1 -20.3676081745 -20.5786771495 -24.9568763475
460 1 -22.9135592505 -19.1087716105 -23.2531654275
461 1 -20.3676081745 -20.5786771495 -20.9574492443
462 1 -22.913559225 -22.0485826444 -22.6611600266
463 2 -21.1451439599 -18.9855975563 -17.2178720625
464 2 -21.3584877053 -22.0485826444 -17.2178720625
465 2 -19.5900724401 -21.9254085461 -19.5135883834
466 2 -21.9226796942 -20.5786771495 -19.5135883834
467 2 -19.5900724656 -19.2319457087 -19.5135883834
468 2 -23.6910949849 -20.7018512036 -17.2178720625
469 2 -21.1451439599 -21.9254085461 -26.4007372084
470 2 -18.8125367058 -20.5786771495 -26.4007372084
471 2 -22.1360234906 -20.4555030512 -14.9221557416
472 2 -24.4686307192 -19.1087716105 -14.9221557416
473 2 -22.1360234651 -17.7620402138 -14.9221557416
474 2 -21.1451439344 -19.2319457087 -26.4007372084
475 2 -23.6910949594 -20.4555030512 -21.8093045666
476 2 -21.3584877308 -19.1087716105 -21.8093045666
477 2 -24.6819744901 -18.9855975563 -24.1050208875
478 2 -19.3767286947 -22.0485826444 -24.1050208875
479 2 -22.1360234397 -20.7018512477 -24.1050208875
480 2 -23.6910949849 -17.7620402138 -21.8093045666
481 1 -22.9135592505 -19.1087716105 -6.5911460557
482 1 -22.913559225 -22.0485826444 -4.8874352734
483 1 -22.9135592505 -19.1087716105 -2.5917189525
484 1 -20.3676081745 -20.5786771495 -4.2954298725
485 1 -22.913559225 -22.0485826444 -1.9997135516
486 1 -20.3676081745 -20.5786771495 -0.2960027693
487 1 -22.913559225 -22.0485826444 -11.7745840984
488 1 -22.9135592505 -19.1087716105 -13.4782948807
489 1 -20.3676081745 -20.5786771495 -11.1825786975
490 1 -22.9135592505 -19.1087716105 -9.4788677775
491 1 -20.3676081745 -20.5786771495 -7.1831515943
492 1 -22.913559225 -22.0485826444 -8.8868623766
493 2 -21.1451439599 -18.9855975563 -3.4435744125
494 2 -21.3584877053 -22.0485826444 -3.4435744125
495 2 -19.5900724401 -21.9254085461 -5.7392907334
496 2 -21.9226796942 -20.5786771495 -5.7392907334
497 2 -19.5900724656 -19.2319457087 -5.7392907334
498 2 -23.6910949849 -20.7018512036 -3.4435744125
499 2 -21.1451439599 -21.9254085461 -12.6264395584
500 2 -18.8125367058 -20.5786771495 -12.6264395584
501 2 -22.1360234906 -20.4555030512 -1.1478580916
502 2 -24.4686307192 -19.1087716105 -1.1478580916
503 2 -22.1360234651 -17.7620402138 -1.1478580916
504 2 -21.1451439344 -19.2319457087 -12.6264395584
505 2 -23.6910949594 -20.4555030512 -8.0350069166
506 2 -21.3584877308 -19.1087716105 -8.0350069166
507 2 -24.6819744901 -18.9855975563 -10.3307232375
508 2 -19.3767286947 -22.0485826444 -10.3307232375
509 2 -22.1360234397 -20.7018512477 -10.3307232375
510 2 -23.6910949849 -17.7620402138 -8.0350069166
511 1 -22.9135592505 -19.1087716105 7.1831515943
512 1 -22.913559225 -22.0485826444 8.8868623766
513 1 -22.9135592505 -19.1087716105 11.1825786975
514 1 -20.3676081745 -20.5786771495 9.4788677775
515 1 -22.913559225 -22.0485826444 11.7745840984
516 1 -20.3676081745 -20.5786771495 13.4782948807
517 1 -22.913559225 -22.0485826444 1.9997135516
518 1 -22.9135592505 -19.1087716105 0.2960027693
519 1 -20.3676081745 -20.5786771495 2.5917189525
520 1 -22.9135592505 -19.1087716105 4.2954298725
521 1 -20.3676081745 -20.5786771495 6.5911460557
522 1 -22.913559225 -22.0485826444 4.8874352734
523 2 -21.1451439599 -18.9855975563 10.3307232375
524 2 -21.3584877053 -22.0485826444 10.3307232375
525 2 -19.5900724401 -21.9254085461 8.0350069166
526 2 -21.9226796942 -20.5786771495 8.0350069166
527 2 -19.5900724656 -19.2319457087 8.0350069166
528 2 -23.6910949849 -20.7018512036 10.3307232375
529 2 -21.1451439599 -21.9254085461 1.1478580916
530 2 -18.8125367058 -20.5786771495 1.1478580916
531 2 -22.1360234906 -20.4555030512 12.6264395584
532 2 -24.4686307192 -19.1087716105 12.6264395584
533 2 -22.1360234651 -17.7620402138 12.6264395584
534 2 -21.1451439344 -19.2319457087 1.1478580916
535 2 -23.6910949594 -20.4555030512 5.7392907334
536 2 -21.3584877308 -19.1087716105 5.7392907334
537 2 -24.6819744901 -18.9855975563 3.4435744125
538 2 -19.3767286947 -22.0485826444 3.4435744125
539 2 -22.1360234397 -20.7018512477 3.4435744125
540 2 -23.6910949849 -17.7620402138 5.7392907334
541 1 -22.9135592505 -19.1087716105 20.9574492443
542 1 -22.913559225 -22.0485826444 22.6611600266
543 1 -22.9135592505 -19.1087716105 24.9568763475
544 1 -20.3676081745 -20.5786771495 23.2531654275
545 1 -22.913559225 -22.0485826444 25.5488817484
546 1 -20.3676081745 -20.5786771495 27.2525925307
547 1 -22.913559225 -22.0485826444 15.7740112016
548 1 -22.9135592505 -19.1087716105 14.0703004193
549 1 -20.3676081745 -20.5786771495 16.3660166025
550 1 -22.9135592505 -19.1087716105 18.0697275225
551 1 -20.3676081745 -20.5786771495 20.3654437057
552 1 -22.913559225 -22.0485826444 18.6617329234
553 2 -21.1451439599 -18.9855975563 24.1050208875
554 2 -21.3584877053 -22.0485826444 24.1050208875
555 2 -19.5900724401 -21.9254085461 21.8093045666
556 2 -21.9226796942 -20.5786771495 21.8093045666
557 2 -19.5900724656 -19.2319457087 21.8093045666
558 2 -23.6910949849 -20.7018512036 24.1050208875
559 2 -21.1451439599 -21.9254085461 14.9221557416
560 2 -18.8125367058 -20.5786771495 14.9221557416
561 2 -22.1360234906 -20.4555030512 26.4007372084
562 2 -24.4686307192 -19.1087716105 26.4007372084
563 2 -22.1360234651 -17.7620402138 26.4007372084
564 2 -21.1451439344 -19.2319457087 14.9221557416
565 2 -23.6910949594 -20.4555030512 19.5135883834
566 2 -21.3584877308 -19.1087716105 19.5135883834
567 2 -24.6819744901 -18.9855975563 17.2178720625
568 2 -19.3767286947 -22.0485826444 17.2178720625
569 2 -22.1360234397 -20.7018512477 17.2178720625
570 2 -23.6910949849 -17.7620402138 19.5135883834
571 1 -22.9135592505 -19.1087716105 34.7317468943
572 1 -22.913559225 -22.0485826444 36.4354576766
573 1 -22.9135592505 -19.1087716105 38.7311739975
574 1 -20.3676081745 -20.5786771495 37.0274630775
575 1 -22.913559225 -22.0485826444 39.3231793984
576 1 -20.3676081745 -20.5786771495 41.0268901807
577 1 -22.913559225 -22.0485826444 29.5483088516
578 1 -22.9135592505 -19.1087716105 27.8445980693
579 1 -20.3676081745 -20.5786771495 30.1403142525
580 1 -22.9135592505 -19.1087716105 31.8440251725
581 1 -20.3676081745 -20.5786771495 34.1397413557
582 1 -22.913559225 -22.0485826444 32.4360305734
583 2 -21.1451439599 -18.9855975563 37.8793185375
584 2 -21.3584877053 -22.0485826444 37.8793185375
585 2 -19.5900724401 -21.9254085461 35.5836022166
586 2 -21.9226796942 -20.5786771495 35.5836022166
587 2 -19.5900724656 -19.2319457087 35.5836022166
588 2 -23.6910949849 -20.7018512036 37.8793185375
589 2 -21.1451439599 -21.9254085461 28.6964533916
590 2 -18.8125367058 -20.5786771495 28.6964533916
591 2 -22.1360234906 -20.4555030512 40.1750348584
592 2 -24.4686307192 -19.1087716105 40.1750348584
593 2 -22.1360234651 -17.7620402138 40.1750348584
594 2 -21.1451439344 -19.2319457087 28.6964533916
595 2 -23.6910949594 -20.4555030512 33.2878860334
596 2 -21.3584877308 -19.1087716105 33.2878860334
597 2 -24.6819744901 -18.9855975563 30.9921697125